# vtk DataFile Version 2.0
test
ASCII
DATASET UNSTRUCTURED_GRID
POINTS 41454 float
0.750000 -0.500000 0.050000
0.750000 0.450000 0.050000
0.772857 -0.505859 0.050000
0.779961 -0.492496 0.050000
0.792035 -0.475875 0.050000
0.797114 -0.459282 0.050000
0.802037 -0.441665 0.050000
0.805054 -0.424567 0.050000
0.807577 -0.407019 0.050000
0.809198 -0.389678 0.050000
0.810281 -0.372113 0.050000
0.810702 -0.354643 0.050000
0.810554 -0.337062 0.050000
0.809788 -0.319590 0.050000
0.808413 -0.302109 0.050000
0.806421 -0.284844 0.050000
0.803812 -0.267732 0.050000
0.800662 -0.251052 0.050000
0.797079 -0.234748 0.050000
0.793287 -0.219088 0.050000
0.789587 -0.203904 0.050000
0.786159 -0.189148 0.050000
0.783309 -0.174722 0.050000
0.780976 -0.160228 0.050000
0.779196 -0.145821 0.050000
0.777869 -0.131148 0.050000
0.776854 -0.116345 0.050000
0.776060 -0.101313 0.050000
0.775384 -0.086132 0.050000
0.774772 -0.070806 0.050000
0.774180 -0.055390 0.050000
0.773591 -0.039900 0.050000
0.772991 -0.024368 0.050000
0.772376 -0.008805 0.050000
0.771743 0.006773 0.050000
0.771092 0.022357 0.050000
0.770424 0.037936 0.050000
0.769739 0.053505 0.050000
0.769039 0.069052 0.050000
0.768327 0.084571 0.050000
0.767609 0.100045 0.050000
0.766890 0.115468 0.050000
0.766185 0.130811 0.050000
0.765510 0.146066 0.050000
0.764897 0.161195 0.050000
0.764388 0.176186 0.050000
0.764037 0.191007 0.050000
0.763933 0.205639 0.050000
0.764146 0.220108 0.050000
0.764787 0.234403 0.050000
0.765948 0.248618 0.050000
0.767673 0.262901 0.050000
0.769901 0.277344 0.050000
0.772577 0.292189 0.050000
0.775358 0.307669 0.050000
0.777880 0.323777 0.050000
0.779795 0.340591 0.050000
0.780665 0.357868 0.050000
0.780437 0.375333 0.050000
0.778597 0.392941 0.050000
0.775537 0.409910 0.050000
0.769666 0.426647 0.050000
0.763924 0.440634 0.050000
-0.750000 0.450000 0.050000
0.733871 0.450000 0.050000
0.717742 0.450000 0.050000
0.701613 0.450000 0.050000
0.685484 0.450000 0.050000
0.669355 0.450000 0.050000
0.653226 0.450000 0.050000
0.637097 0.450000 0.050000
0.620968 0.450000 0.050000
0.604839 0.450000 0.050000
0.588710 0.450000 0.050000
0.572581 0.450000 0.050000
0.556452 0.450000 0.050000
0.540323 0.450000 0.050000
0.524194 0.450000 0.050000
0.508065 0.450000 0.050000
0.491935 0.450000 0.050000
0.475807 0.450000 0.050000
0.459677 0.450000 0.050000
0.443548 0.450000 0.050000
0.427419 0.450000 0.050000
0.411290 0.450000 0.050000
0.395161 0.450000 0.050000
0.379032 0.450000 0.050000
0.362903 0.450000 0.050000
0.346774 0.450000 0.050000
0.330645 0.450000 0.050000
0.314516 0.450000 0.050000
0.298387 0.450000 0.050000
0.282258 0.450000 0.050000
0.266129 0.450000 0.050000
0.250000 0.450000 0.050000
0.233871 0.450000 0.050000
0.217742 0.450000 0.050000
0.201613 0.450000 0.050000
0.185484 0.450000 0.050000
0.169355 0.450000 0.050000
0.153226 0.450000 0.050000
0.137097 0.450000 0.050000
0.120968 0.450000 0.050000
0.104839 0.450000 0.050000
0.088710 0.450000 0.050000
0.072581 0.450000 0.050000
0.056452 0.450000 0.050000
0.040323 0.450000 0.050000
0.024194 0.450000 0.050000
0.008065 0.450000 0.050000
-0.008065 0.450000 0.050000
-0.024194 0.450000 0.050000
-0.040323 0.450000 0.050000
-0.056452 0.450000 0.050000
-0.072581 0.450000 0.050000
-0.088710 0.450000 0.050000
-0.104839 0.450000 0.050000
-0.120968 0.450000 0.050000
-0.137097 0.450000 0.050000
-0.153226 0.450000 0.050000
-0.169355 0.450000 0.050000
-0.185484 0.450000 0.050000
-0.201613 0.450000 0.050000
-0.217742 0.450000 0.050000
-0.233871 0.450000 0.050000
-0.250000 0.450000 0.050000
-0.266129 0.450000 0.050000
-0.282258 0.450000 0.050000
-0.298387 0.450000 0.050000
-0.314516 0.450000 0.050000
-0.330645 0.450000 0.050000
-0.346774 0.450000 0.050000
-0.362903 0.450000 0.050000
-0.379032 0.450000 0.050000
-0.395161 0.450000 0.050000
-0.411290 0.450000 0.050000
-0.427419 0.450000 0.050000
-0.443548 0.450000 0.050000
-0.459677 0.450000 0.050000
-0.475807 0.450000 0.050000
-0.491935 0.450000 0.050000
-0.508065 0.450000 0.050000
-0.524194 0.450000 0.050000
-0.540323 0.450000 0.050000
-0.556452 0.450000 0.050000
-0.572581 0.450000 0.050000
-0.588710 0.450000 0.050000
-0.604839 0.450000 0.050000
-0.620968 0.450000 0.050000
-0.637097 0.450000 0.050000
-0.653226 0.450000 0.050000
-0.669355 0.450000 0.050000
-0.685484 0.450000 0.050000
-0.701613 0.450000 0.050000
-0.717742 0.450000 0.050000
-0.733871 0.450000 0.050000
-0.750000 -0.500000 0.050000
-0.762487 0.439431 0.050000
-0.767870 0.425340 0.050000
-0.773389 0.408501 0.050000
-0.776414 0.391559 0.050000
-0.778339 0.373857 0.050000
-0.778812 0.356438 0.050000
-0.778313 0.338995 0.050000
-0.776906 0.322128 0.050000
-0.774946 0.305607 0.050000
-0.772643 0.289772 0.050000
-0.770357 0.274358 0.050000
-0.768205 0.259347 0.050000
-0.766414 0.244627 0.050000
-0.764985 0.229959 0.050000
-0.763935 0.215371 0.050000
-0.763228 0.200690 0.050000
-0.762796 0.185939 0.050000
-0.762580 0.171068 0.050000
-0.762525 0.156101 0.050000
-0.762588 0.141033 0.050000
-0.762736 0.125893 0.050000
-0.762945 0.110685 0.050000
-0.763201 0.095435 0.050000
-0.763493 0.080143 0.050000
-0.763814 0.064837 0.050000
-0.764161 0.049504 0.050000
-0.764528 0.034174 0.050000
-0.764911 0.018828 0.050000
-0.765301 0.003502 0.050000
-0.765694 -0.011818 0.050000
-0.766082 -0.027092 0.050000
-0.766473 -0.042309 0.050000
-0.766879 -0.057431 0.050000
-0.767332 -0.072430 0.050000
-0.767880 -0.087268 0.050000
-0.768586 -0.101924 0.050000
-0.769538 -0.116366 0.050000
-0.770826 -0.130624 0.050000
-0.772576 -0.144652 0.050000
-0.774863 -0.158657 0.050000
-0.777737 -0.172514 0.050000
-0.781266 -0.186608 0.050000
-0.785260 -0.200935 0.050000
-0.789652 -0.215697 0.050000
-0.794157 -0.231086 0.050000
-0.798512 -0.247028 0.050000
-0.802530 -0.263593 0.050000
-0.806007 -0.280592 0.050000
-0.808884 -0.297988 0.050000
-0.811061 -0.315645 0.050000
-0.812558 -0.333482 0.050000
-0.813297 -0.351470 0.050000
-0.813352 -0.369457 0.050000
-0.812562 -0.387580 0.050000
-0.811109 -0.405511 0.050000
-0.808501 -0.423699 0.050000
-0.805313 -0.441373 0.050000
-0.799765 -0.459610 0.050000
-0.794215 -0.476631 0.050000
-0.780706 -0.493350 0.050000
-0.773336 -0.507221 0.050000
-0.733871 -0.500000 0.050000
-0.717742 -0.500000 0.050000
-0.701613 -0.500000 0.050000
-0.685484 -0.500000 0.050000
-0.669355 -0.500000 0.050000
-0.653226 -0.500000 0.050000
-0.637097 -0.500000 0.050000
-0.620968 -0.500000 0.050000
-0.604839 -0.500000 0.050000
-0.588710 -0.500000 0.050000
-0.572581 -0.500000 0.050000
-0.556452 -0.500000 0.050000
-0.540323 -0.500000 0.050000
-0.524194 -0.500000 0.050000
-0.508065 -0.500000 0.050000
-0.491935 -0.500000 0.050000
-0.475807 -0.500000 0.050000
-0.459677 -0.500000 0.050000
-0.443548 -0.500000 0.050000
-0.427419 -0.500000 0.050000
-0.411290 -0.500000 0.050000
-0.395161 -0.500000 0.050000
-0.379032 -0.500000 0.050000
-0.362903 -0.500000 0.050000
-0.346774 -0.500000 0.050000
-0.330645 -0.500000 0.050000
-0.314516 -0.500000 0.050000
-0.298387 -0.500000 0.050000
-0.282258 -0.500000 0.050000
-0.266129 -0.500000 0.050000
-0.250000 -0.500000 0.050000
-0.233871 -0.500000 0.050000
-0.217742 -0.500000 0.050000
-0.201613 -0.500000 0.050000
-0.185484 -0.500000 0.050000
-0.169355 -0.500000 0.050000
-0.153226 -0.500000 0.050000
-0.137097 -0.500000 0.050000
-0.120968 -0.500000 0.050000
-0.104839 -0.500000 0.050000
-0.088710 -0.500000 0.050000
-0.072581 -0.500000 0.050000
-0.056452 -0.500000 0.050000
-0.040323 -0.500000 0.050000
-0.024194 -0.500000 0.050000
-0.008065 -0.500000 0.050000
0.008065 -0.500000 0.050000
0.024194 -0.500000 0.050000
0.040323 -0.500000 0.050000
0.056452 -0.500000 0.050000
0.072581 -0.500000 0.050000
0.088710 -0.500000 0.050000
0.104839 -0.500000 0.050000
0.120968 -0.500000 0.050000
0.137097 -0.500000 0.050000
0.153226 -0.500000 0.050000
0.169355 -0.500000 0.050000
0.185484 -0.500000 0.050000
0.201613 -0.500000 0.050000
0.217742 -0.500000 0.050000
0.233871 -0.500000 0.050000
0.250000 -0.500000 0.050000
0.266129 -0.500000 0.050000
0.282258 -0.500000 0.050000
0.298387 -0.500000 0.050000
0.314516 -0.500000 0.050000
0.330645 -0.500000 0.050000
0.346774 -0.500000 0.050000
0.362903 -0.500000 0.050000
0.379032 -0.500000 0.050000
0.395161 -0.500000 0.050000
0.411290 -0.500000 0.050000
0.427419 -0.500000 0.050000
0.443548 -0.500000 0.050000
0.459677 -0.500000 0.050000
0.475807 -0.500000 0.050000
0.491935 -0.500000 0.050000
0.508065 -0.500000 0.050000
0.524194 -0.500000 0.050000
0.540323 -0.500000 0.050000
0.556452 -0.500000 0.050000
0.572581 -0.500000 0.050000
0.588710 -0.500000 0.050000
0.604839 -0.500000 0.050000
0.620968 -0.500000 0.050000
0.637097 -0.500000 0.050000
0.653226 -0.500000 0.050000
0.669355 -0.500000 0.050000
0.685484 -0.500000 0.050000
0.701613 -0.500000 0.050000
0.717742 -0.500000 0.050000
0.733871 -0.500000 0.050000
0.757820 -0.486174 0.050000
0.770520 -0.482044 0.050000
0.777155 -0.469220 0.050000
0.783305 -0.454118 0.050000
0.787009 -0.438248 0.050000
0.790299 -0.421717 0.050000
0.792490 -0.405141 0.050000
0.794199 -0.388245 0.050000
0.795192 -0.371363 0.050000
0.795653 -0.354314 0.050000
0.795490 -0.337316 0.050000
0.794739 -0.320252 0.050000
0.793354 -0.303319 0.050000
0.791318 -0.286430 0.050000
0.788614 -0.269824 0.050000
0.785263 -0.253427 0.050000
0.781357 -0.237533 0.050000
0.777135 -0.221977 0.050000
0.772903 -0.206919 0.050000
0.769129 -0.192123 0.050000
0.765942 -0.177318 0.050000
0.763518 -0.162665 0.050000
0.761762 -0.147737 0.050000
0.760531 -0.132787 0.050000
0.759666 -0.117648 0.050000
0.759011 -0.102419 0.050000
0.758460 -0.087069 0.050000
0.757940 -0.071650 0.050000
0.757419 -0.056165 0.050000
0.756876 -0.040639 0.050000
0.756308 -0.025083 0.050000
0.755711 -0.009509 0.050000
0.755088 0.006076 0.050000
0.754438 0.021663 0.050000
0.753763 0.037247 0.050000
0.753063 0.052819 0.050000
0.752339 0.068376 0.050000
0.751594 0.083906 0.050000
0.750828 0.099406 0.050000
0.750049 0.114860 0.050000
0.749262 0.130265 0.050000
0.748486 0.145596 0.050000
0.747743 0.160855 0.050000
0.747079 0.176009 0.050000
[...]
CELL_DATA 34596
SCALARS Mises_Stress_Abs(MPa) float 1
LOOKUP_TABLE default
63.139800
66.692600
47.136800
56.840200
61.653800
57.346600
62.554000
60.575600
41.827800
63.928100
16.448500
54.902900
30.407000
7.510620
2.545550
1.281510
1.033510
0.435152
23.147700
0.234578
2.741910
11.290500
34.465100
2.078660
1.588750
1.596260
0.807424
0.407183
34.235100
19.622600
30.402100
9.726610
13.512000
15.837300
24.249200
27.922500
21.961300
14.838500
23.932500
15.961600
25.180800
29.604600
33.557600
37.015400
17.209300
24.782900
1.712560
2.205940
1.513370
1.625420
0.796761
29.680600
34.364200
29.061200
22.784600
18.224700
30.827200
36.330100
31.219400
33.059400
33.081000
30.046100
31.924100
10.244300
29.038000
32.927000
10.330600
26.051400
21.323300
1.202240
2.050830
2.238000
2.104510
1.714660
29.716700
21.009500
35.471900
69.790500
22.702300
22.090900
75.883200
72.487500
23.304700
32.661900
81.617600
25.177800
20.960700
76.042700
77.579800
38.780400
77.047800
74.914000
2.085150
2.760420
2.102900
2.509160
2.318000
15.843900
18.658700
28.504200
24.905900
37.093500
43.121000
19.672900
18.385500
29.391600
16.946600
2.797570
3.187730
2.575150
2.680740
17.595600
13.877800
12.848900
5.668610
7.328130
24.502900
15.247600
20.570400
2.423540
25.981200
22.996200
29.915500
19.439100
27.579800
16.571400
12.177300
3.642420
2.889840
2.846560
3.348770
3.744430
13.439600
17.144800
19.810400
18.182400
11.846600
17.923700
15.807400
15.593400
13.305800
15.634500
3.596900
4.423570
3.960730
3.400210
3.397540
14.149500
15.101500
11.055200
16.520700
14.762400
8.346020
11.962600
15.936100
20.980300
13.644800
3.897500
5.473820
3.502460
4.289010
4.692660
8.279000
12.747500
13.486700
14.885000
10.636900
3.904230
4.897320
5.649160
5.704140
4.318650
5.449550
14.577800
16.174300
14.083000
5.616140
10.233300
11.484800
10.147600
15.710600
7.648850
5.818850
5.360980
5.197570
7.560020
4.194530
11.075700
14.633500
16.444100
13.835800
9.735760
10.690400
8.506760
9.595410
7.131900
11.362900
5.828720
6.508320
6.952110
4.541960
14.588100
7.224570
12.581100
15.632500
14.439700
17.063700
8.610950
7.823010
10.964600
6.495460
8.226770
4.803200
6.900540
7.346500
8.062390
16.274100
10.000900
19.707200
17.683000
22.948100
15.051000
6.920860
7.776530
7.991870
6.100590
6.801220
7.990790
9.808740
8.703330
8.335820
8.044100
20.832600
21.181000
16.631500
19.017200
6.933480
5.657880
25.960500
6.341930
5.328910
6.377940
17.196800
10.704200
7.863170
15.139100
11.535300
33.375900
19.346200
18.659400
31.420900
27.108300
5.171140
4.942290
4.654700
4.773160
5.693790
26.385600
11.858100
11.831500
12.398100
20.757800
33.911900
13.672800
22.615500
41.365400
23.886700
3.822640
4.659140
4.128350
3.817240
4.470250
28.828000
56.212500
16.767400
50.496800
57.207300
13.870500
16.336400
50.783400
51.609300
22.198100
19.536200
24.422000
60.025700
28.796200
57.195600
22.275300
32.317000
3.655360
3.119060
3.652230
3.736280
2.229960
16.263300
33.050200
29.019100
13.126300
18.141200
21.862700
27.800700
32.184800
31.581100
12.649100
24.853100
20.422600
21.278100
28.683000
29.788900
25.402900
27.795300
3.050030
1.627200
2.409150
2.866470
2.898620
15.966700
23.534300
15.367100
19.221000
13.500500
4.088180
23.109900
30.865200
6.351550
19.174800
18.489400
7.698020
31.656000
4.249620
13.480100
25.075300
7.793020
0.744864
1.755710
2.368580
2.285720
2.093640
19.948600
12.825100
17.682500
17.823300
20.953100
20.170500
23.823200
21.191200
20.919900
20.885900
9.533510
20.932800
24.007500
28.655200
27.151100
21.461200
26.408300
0.540316
2.103920
1.118150
1.474660
1.634240
7.119400
44.152600
13.380500
43.041000
33.243900
27.747000
18.874200
38.201800
46.602600
42.276800
47.005200
9.416600
36.366200
17.945600
29.414000
3.305370
42.331700
1.649410
1.172670
0.737953
1.766430
0.518708
0.047164
7.652250
12.856700
3.892060
4.613430
10.815000
7.674760
6.743980
3.776510
6.242240
3.692740
4.499820
2.889820
2.769380
5.409930
4.486150
2.650150
3.856510
2.626710
3.035490
2.939770
10.770500
11.609200
8.318520
10.333700
8.652940
8.898050
7.566870
9.010980
11.013100
6.102000
3.037710
7.423760
11.029900
4.095360
2.275280
2.985940
8.474110
5.791760
10.221400
9.814410
10.601300
4.914690
5.074460
3.051150
4.939460
2.983260
4.629480
3.480310
4.614030
4.253080
5.693740
6.145050
5.386420
1.442090
3.659460
2.491040
2.284880
3.705040
3.098780
2.955610
3.374660
2.240810
2.981830
5.372080
3.047200
3.504100
3.619370
3.984170
3.618540
6.146430
4.509270
4.261150
5.549640
4.429530
5.374050
5.193790
3.392690
1.698000
8.295650
6.454150
7.054360
7.145860
5.572180
7.370120
7.370180
8.010850
3.525890
9.041730
6.251710
7.650120
8.411240
4.244660
8.016620
6.173830
7.981620
6.274430
7.686900
6.824810
7.211660
5.311400
8.524520
7.196570
7.993120
6.518540
7.761990
6.317030
5.629210
2.310820
4.564870
6.140330
15.280300
15.518300
6.916490
9.285530
7.370310
11.483500
9.636110
13.097000
18.872500
17.722400
18.116900
13.636500
15.754400
13.240100
10.874000
11.609700
12.577200
17.709200
5.855040
6.772610
5.997560
8.034380
3.780830
3.684280
7.815230
10.117500
11.590700
13.214500
14.893600
4.311160
4.819010
0.002469
0.001340
10.888000
9.159600
7.861360
8.888150
8.501080
11.829900
3.400460
0.004481
0.008534
3.717530
11.141200
5.234470
0.002363
12.118000
0.004318
1.563330
1.931780
6.375130
4.051010
2.972210
0.007615
1.909640
6.504220
12.152000
5.099520
0.015412
6.186210
12.172600
2.689060
0.002474
4.476830
0.003696
1.838320
4.194670
1.267680
0.665586
11.840700
0.006641
5.830720
7.101550
0.013830
12.933900
5.802400
0.002522
1.717560
4.114360
4.392410
0.003321
1.495600
2.212170
0.006599
0.623100
7.050530
12.087600
0.013449
5.546380
0.002444
0.003404
12.635100
6.170910
5.083400
6.570040
2.765170
7.960750
8.844480
0.002448
0.013201
11.557400
0.006430
5.651490
1.871940
6.363170
5.847420
12.526700
4.670700
0.004155
0.002512
0.001635
11.420900
16.202400
15.224900
0.013031
10.610400
0.006387
5.750410
6.100660
2.066480
6.062710
11.692900
0.006448
0.001329
0.003978
0.006101
12.940500
16.726700
11.310800
0.012966
12.119900
19.916800
3.477230
5.410230
0.006354
4.430380
9.819130
10.744800
5.753380
8.019280
0.006261
0.004488
0.001825
7.270090
0.007862
0.012923
7.571470
14.518400
18.769700
0.002014
0.006349
7.742140
5.828060
3.784910
4.098690
9.375660
5.875760
18.233700
0.003448
0.007760
1.864590
7.649250
29.037800
19.861600
26.673700
0.012738
14.060800
6.984880
7.835270
0.006228
5.044490
2.536670
5.259840
5.428770
5.358540
7.865790
0.003683
18.271200
13.089200
13.069000
7.106450
12.352100
3.836570
6.598170
1.243560
0.012754
0.002435
6.446100
0.006028
2.427880
5.892890
9.897630
13.437700
9.512960
6.298680
9.575630
13.307200
13.381600
10.423900
4.829740
5.742420
2.231790
4.739470
1.228040
4.213220
2.673760
1.088950
5.406700
5.251220
0.003060
0.006499
6.695820
8.655820
13.211000
4.507920
9.049780
7.471340
13.125600
9.383490
9.555970
14.137600
10.582300
14.188700
15.486700
7.908990
1.771160
15.430200
14.456200
9.440510
14.340000
4.607210
14.754000
18.304000
7.914140
5.288780
16.279900
7.435930
14.251100
14.470900
16.838000
22.586800
5.450860
23.733000
10.269200
7.551700
7.219190
9.109070
5.773390
6.503980
1.504460
8.047590
6.845100
8.014060
6.763110
4.729430
5.188470
5.073620
7.431500
8.226860
10.312300
8.863150
7.186400
6.672980
7.111910
3.505130
4.336890
0.009814
2.094530
7.261350
6.041690
4.335890
16.505900
19.218500
20.947100
12.745700
18.576500
11.369700
13.277400
2.176460
8.151860
3.897520
8.792800
10.220900
5.135770
4.006460
6.339600
6.902860
6.370410
2.685850
3.436300
7.153600
2.925930
8.093490
2.246770
4.956940
8.497160
4.593610
5.148970
10.244700
14.544500
4.125160
9.230490
7.312560
6.795330
5.933920
10.512500
14.490400
14.040500
5.957490
5.080780
7.525880
7.271510
9.239540
7.019520
11.142700
8.164100
7.530290
5.520230
8.508330
6.582090
3.396380
7.704710
4.253940
8.268020
7.449650
9.150060
3.998310
4.713450
2.377430
4.343690
6.516430
3.622510
10.264000
3.708980
8.317120
8.333630
2.008780
6.915790
4.745720
3.148770
6.326210
4.448340
2.691230
3.818310
6.280490
5.548570
3.060710
3.626250
8.139370
4.663870
2.470030
4.184110
2.731710
4.927220
2.923400
4.538030
5.442360
3.378240
3.685780
1.907200
6.007140
2.775890
4.141030
5.800050
6.185850
3.953000
2.356920
2.967800
2.286510
3.896720
4.713690
2.614000
2.589730
3.242660
4.093580
3.827080
3.280660
4.341410
2.799380
3.147000
1.654190
2.444210
3.256980
1.528770
1.036250
3.463610
1.417240
1.597820
1.644360
1.547820
0.620206
1.982610
3.451290
2.264280
2.250320
1.893100
1.391580
1.113300
2.444800
4.216170
1.469750
3.600210
3.915240
3.595160
2.413200
0.873437
0.759529
1.765320
2.491710
1.047140
4.450590
6.161020
14.129400
1.599390
2.159420
1.650180
3.396050
4.426820
7.063370
3.860990
8.603100
7.147740
0.006191
4.857840
0.005139
0.006959
12.543200
15.154500
7.450860
8.416250
9.734290
0.005976
0.007154
4.026820
0.006231
6.431780
7.093860
5.960060
12.959400
8.923040
4.703780
0.007466
3.470050
0.007106
0.006344
7.479530
6.182640
5.840820
10.762100
1.347600
1.686480
0.008382
4.052800
2.778480
0.006517
0.007885
8.985900
5.003850
5.037790
6.457650
0.006716
0.008408
2.755540
0.009925
2.431680
7.007470
4.437160
5.528310
4.383880
1.875490
2.328510
0.006925
0.011583
0.008989
5.950760
3.440990
3.914930
4.288620
0.013550
0.007025
0.009616
3.108120
3.948050
3.765120
3.047690
0.015564
0.010098
0.967435
1.516030
0.006984
2.277240
2.669730
2.581840
3.983620
1.590120
2.674310
1.850650
1.891550
0.953430
1.836710
2.082650
4.159760
21.307700
13.974600
11.648900
26.733800
17.300900
7.388610
0.007168
0.004153
13.138300
7.378600
24.928600
12.296100
14.566400
21.890500
0.004207
9.957720
6.624370
0.006403
17.050000
11.169400
12.377400
20.296200
9.113600
5.509180
9.520590
0.004500
0.006884
0.006238
16.219400
11.764500
18.051800
9.439610
6.773810
9.927130
19.057100
19.487100
20.238000
12.989900
20.130600
20.752700
16.383100
17.392000
21.302600
22.434100
25.589500
22.482800
25.786200
24.442700
23.462400
27.081600
24.365700
25.127200
21.558400
23.442900
3.946760
23.967800
25.286700
14.920300
9.515740
5.849250
26.416400
27.678700
19.860500
12.078000
12.643200
9.750120
10.544800
11.129300
11.396000
11.469500
10.996500
10.742400
10.532500
9.901330
11.491400
13.623900
12.668800
14.682200
13.525500
13.768200
12.008700
12.103000
13.159200
12.549700
13.101700
13.655400
15.615000
18.206400
6.293040
15.856300
16.700700
12.463800
17.181800
13.310600
27.978500
10.376900
26.974900
25.031000
27.858000
14.150500
12.794700
1.849210
2.245110
2.465610
2.025020
5.203970
2.698410
3.693840
1.543410
1.263280
8.506820
2.146840
1.651170
1.836480
2.453450
2.282120
1.412790
2.030230
1.248510
2.614610
4.224420
2.603880
5.462620
17.452700
10.789700
14.021100
18.394600
19.810700
20.640000
9.757210
14.746600
6.917070
3.945390
9.564530
10.285200
9.098190
8.535210
9.303920
10.099300
9.579240
9.980240
9.831690
9.981320
10.240600
10.504400
11.323600
10.053900
7.544320
10.820100
10.949400
11.287700
11.546300
4.031360
10.481000
23.322000
21.204600
20.992600
12.802700
19.482700
17.301600
18.387800
14.030500
17.621900
9.667400
6.948610
18.605400
20.298500
19.735800
20.246800
20.916300
19.233100
21.560200
19.470500
20.919900
21.478700
22.488600
22.991200
22.237500
21.920600
22.251000
24.630100
13.122400
24.111900
10.663100
23.815400
20.266300
20.624900
27.168000
21.354700
32.249300
28.934100
30.322900
27.207900
31.194900
31.506900
32.525800
33.316900
30.138000
29.023600
33.208200
34.385800
33.940300
38.702100
39.110900
35.358200
36.165500
33.987400
19.456900
14.534400
33.366100
21.238100
30.039200
14.467300
21.202000
0.003336
10.577600
0.005567
15.178400
33.657500
10.333300
19.970600
31.481900
0.005080
17.851700
0.008861
12.851300
17.031300
12.578200
29.105900
31.260500
20.184500
8.485410
12.707000
0.004300
0.007608
0.005471
0.008318
0.007283
0.006707
0.008014
0.010335
0.006644
0.020061
0.010450
0.271898
0.885379
0.525195
0.017979
0.543486
8.473450
11.226900
7.242610
5.102460
4.253180
2.546550
1.894270
0.879131
0.478597
0.526129
0.342101
0.157333
0.091322
0.034325
0.021563
0.083045
0.035603
0.039597
0.051950
0.020390
0.015411
0.082126
0.062534
0.035502
0.026063
0.019857
0.015718
0.060202
0.072812
0.054912
0.036218
0.027219
0.023183
0.076956
0.082522
0.066675
0.048020
0.036635
0.030970
0.068691
0.082092
0.072857
0.056015
0.044093
0.037713
0.071747
0.082045
0.075335
0.060826
0.049284
0.042857
0.068904
0.080091
0.075988
0.063294
0.052471
0.046271
0.069288
0.078400
0.075288
0.064082
0.053898
0.047983
0.067500
0.075940
0.073643
0.063435
0.053761
0.048049
0.066239
0.073122
0.070976
0.061490
0.052120
0.046513
0.063311
0.069276
0.067220
0.058190
0.048986
0.043366
0.059524
0.064282
0.062096
0.053468
0.044316
0.038595
0.053599
0.057586
0.055446
0.047237
0.038143
0.032227
0.045940
0.049144
0.047170
0.039666
0.030673
0.024458
0.036474
0.039348
0.037950
0.031472
0.022794
0.016082
0.028661
0.031082
0.030182
0.025069
0.017399
0.010765
0.030266
0.031316
0.029518
0.025229
0.019654
0.015581
0.041925
0.041889
0.038122
0.032759
0.028176
0.025430
0.057128
0.056240
0.050300
0.043001
0.038113
0.035457
0.069803
0.068762
0.061301
0.052492
0.046903
0.044116
0.077082
0.076985
0.069321
0.059408
0.053577
0.050687
0.080511
0.080835
0.073293
0.063491
0.057712
0.054962
0.079091
0.080377
0.073818
0.064736
0.059491
0.057019
0.074360
0.076691
0.071631
0.063730
0.059263
0.057194
0.068142
0.071141
0.067549
0.061171
0.057541
0.055932
0.061109
0.064746
0.062607
0.057632
0.054890
0.053703
0.054407
0.058387
0.057422
0.053756
0.051755
0.050959
0.048402
0.052607
0.052577
0.049930
0.048554
0.048060
0.043530
0.047783
0.048372
0.046494
0.045555
0.045288
0.039809
0.044041
0.045014
0.043609
0.042951
0.042824
0.037252
0.041393
0.042533
0.041358
0.040828
0.040769
0.035692
0.039720
0.040863
0.039727
0.039204
0.039158
0.034849
0.038803
0.039883
0.038641
0.038054
0.037982
0.034577
0.038476
0.039426
0.038019
0.037320
0.037206
0.034612
0.038548
0.039393
0.037771
0.036954
0.036789
0.034971
0.038978
0.039699
0.037855
0.036909
0.036694
0.035603
0.039744
0.040336
0.038237
0.037160
0.036890
0.036592
0.040887
0.041312
0.038908
0.037682
0.037348
0.038019
0.042469
0.042641
0.039863
0.038449
0.038034
0.039940
0.044530
0.044342
0.041076
0.039425
0.038899
0.042434
0.047096
0.046386
0.042508
0.040544
0.039874
0.045475
0.050134
0.048719
0.044062
0.041712
0.040849
0.049031
0.053527
0.051179
0.045606
0.042772
0.041677
0.052833
0.057025
0.053548
0.046900
0.043535
0.042154
0.056578
0.060195
0.055390
0.047685
0.043719
0.042039
0.059395
0.062377
0.056295
0.047533
0.043048
0.041044
0.060749
0.062816
0.055503
0.046113
0.041197
0.038897
0.059449
0.060603
0.052584
0.043085
0.037934
0.035372
0.054276
0.055045
0.047220
0.038330
0.033249
0.030368
0.046511
0.046608
0.039539
0.032495
0.027459
0.024035
0.035943
0.036194
0.031417
0.026999
0.021802
0.016884
0.026416
0.027518
0.026424
0.025013
0.018609
0.010419
0.025749
0.026933
0.028484
0.028240
0.020125
0.008691
0.031787
0.032849
0.035086
0.034416
0.024750
0.012714
0.039412
0.040104
0.042173
0.040559
0.029449
0.017243
0.042562
0.043249
0.045588
0.044648
0.032536
0.019979
0.043259
0.043375
0.046492
0.046042
0.032770
0.020339
0.034273
0.034152
0.039230
0.043494
0.029848
0.018197
0.032726
0.028207
0.032105
0.038235
0.022809
0.014799
0.071863
0.072900
0.066723
0.045672
0.024544
0.011576
0.213168
0.210232
0.217157
0.146780
0.042681
0.017037
0.626497
0.423404
0.164752
0.083386
0.039749
0.020900
0.303501
0.194782
0.091691
0.057747
0.030200
0.017648
0.098442
0.089305
0.062474
0.040716
0.028793
0.022940
0.039692
0.072897
0.057441
0.039582
0.030907
0.026946
0.035314
0.069594
0.060706
0.043430
0.033262
0.028255
0.041934
0.068657
0.063091
0.046960
0.035136
0.028550
0.043212
0.067084
0.064015
0.049123
0.036509
0.028829
0.046891
0.065716
0.063731
0.050123
0.037336
0.029156
0.063809
0.062697
0.050147
0.037540
0.029219
0.048503
0.061997
0.061036
0.049374
0.037033
0.028721
0.048109
0.059759
0.058870
0.047864
0.035798
0.027505
0.048275
0.057439
0.056172
0.045712
0.033899
0.025616
0.047655
0.054818
0.053078
0.043058
0.031575
0.023357
0.048345
0.052596
0.049814
0.040269
0.029317
0.021421
0.050204
0.051352
0.047131
0.037991
0.027952
0.020905
0.055439
0.052763
0.046116
0.037171
0.028428
0.022701
0.063690
0.057573
0.047921
0.038658
0.030992
0.026570
0.072862
0.064808
0.052530
0.041908
0.034929
0.031224
0.080651
0.071743
0.057483
0.045850
0.038938
0.035550
0.080420
0.074309
0.061130
0.048933
0.042140
0.038963
0.077263
0.074259
0.063029
0.050803
0.044468
0.041406
0.073580
0.073141
0.063359
0.052100
0.046025
0.043206
0.068661
0.071071
0.063386
0.052685
0.047191
0.044554
0.065067
0.068750
0.062582
0.052855
0.047852
0.045521
0.062327
0.065992
0.060761
0.052371
0.047962
0.045971
0.058423
0.062186
0.058196
0.051076
0.047440
0.045808
0.054070
0.057696
0.054825
0.049188
0.046274
0.045043
0.049114
0.052813
0.051130
0.046821
0.044651
0.043773
0.044354
0.048113
0.047411
0.044309
0.042753
0.042189
0.040031
0.043930
0.044077
0.041876
0.040814
0.040482
0.036659
0.040638
0.041333
0.039750
0.039003
0.038829
0.034370
0.038351
0.039313
0.038038
0.037446
0.037353
0.033034
0.036972
0.038005
0.036769
0.036202
0.036126
0.032507
0.036345
0.037250
0.035913
0.035272
0.035178
0.032273
0.036119
0.036930
0.035380
0.034640
0.034503
0.032350
0.036219
0.036885
0.035130
0.034268
0.034089
0.032510
0.036523
0.037105
0.035113
0.034138
0.033913
0.032933
0.037102
0.037574
0.035327
0.034226
0.033954
0.033650
0.038011
0.038318
0.035762
0.034513
0.034184
0.034750
0.039302
0.039364
0.036404
0.034973
0.034568
0.036299
0.041023
0.040705
0.037232
0.035562
0.035057
0.038279
0.043167
0.042329
0.038191
0.036222
0.035584
0.040691
0.045701
0.044161
0.039216
0.036871
0.036066
0.043380
0.048514
0.046116
0.040192
0.037416
0.036404
0.046291
0.051450
0.047999
0.041015
0.037742
0.036501
0.049116
0.054266
0.049671
0.041519
0.037769
0.036266
0.052037
0.056774
0.050811
0.041675
0.037412
0.035658
0.054670
0.058716
0.051507
0.041375
0.036684
0.034664
0.057999
0.060355
0.051508
0.040703
0.035637
0.033296
0.062461
0.061710
0.050823
0.039889
0.034258
0.031553
0.065200
0.061827
0.049932
0.038729
0.032644
0.029285
0.066359
0.060523
0.047889
0.037602
0.030599
0.026313
0.064873
0.057093
0.045043
0.036331
0.028341
0.022366
0.056482
0.050079
0.041893
0.035472
0.026147
0.017495
0.046672
0.042852
0.039612
0.035915
0.024858
0.012206
0.034987
0.035837
0.038735
0.037631
0.025253
0.008524
0.024581
0.030952
0.039347
0.040461
0.027397
0.010566
0.017192
0.028447
0.040706
0.044217
0.030954
0.016868
0.032978
0.037622
0.046162
0.049693
0.035634
0.023600
0.078970
0.079054
0.073704
0.063871
0.041087
0.027036
0.169644
0.165739
0.153183
0.102857
0.046361
0.023518
0.239556
0.233319
0.236457
0.170900
0.047905
0.019678
0.539237
0.411202
0.176494
0.084546
0.041890
0.024718
0.365803
0.253657
0.129950
0.072544
0.043690
0.025965
0.218305
0.165410
0.101339
0.064901
0.044617
0.034671
0.100343
0.108248
0.083509
0.058720
0.045122
0.038319
0.052329
0.084598
0.073536
0.054678
0.043026
0.037052
0.034944
0.071938
0.067697
0.051412
0.039496
0.032814
0.029707
0.064807
0.063641
0.048636
0.035640
0.027473
0.029084
0.060155
0.060433
0.046244
0.032148
0.022185
0.030990
0.056930
0.057716
0.044195
0.029313
0.017559
0.032533
0.054534
0.055401
0.042473
0.027240
0.014033
0.035439
0.052990
0.053473
0.041141
0.026026
0.012278
0.038460
0.052260
0.052082
0.040337
0.025889
0.013095
0.043882
0.052979
0.051472
0.040347
0.027106
0.016462
0.050954
0.055560
0.052163
0.041503
0.029855
0.021576
0.061795
0.061100
0.054622
0.044100
0.034000
0.027637
0.075319
0.069670
0.059284
0.048079
0.038961
0.033882
0.090992
0.080940
0.065804
0.052652
0.043940
0.039405
0.105668
0.092404
0.072473
0.057024
0.047729
0.043420
0.111400
0.098963
0.077485
0.059230
0.049605
0.045285
0.107262
0.096847
0.076189
0.058153
0.049152
0.044982
0.095406
0.089226
0.071272
0.055138
0.046935
0.043246
0.079089
0.079321
0.066429
0.051214
0.044406
0.041022
0.068648
0.071674
0.061574
0.048320
0.042201
0.039296
0.062088
0.066162
0.057757
0.046270
0.040903
0.038361
0.056699
0.061428
0.054926
0.044798
0.040238
0.038074
0.052969
0.057158
0.051965
0.043636
0.039731
0.038017
0.048772
0.052665
0.048889
0.042201