# vtk DataFile Version 2.0
test
ASCII
DATASET UNSTRUCTURED_GRID
POINTS 41454 float
0.750000 -0.500000 0.050000
0.750000 0.475000 0.050000
0.764337 -0.490709 0.050000
0.768911 -0.477168 0.050000
0.773165 -0.460691 0.050000
0.775412 -0.444805 0.050000
0.777355 -0.428312 0.050000
0.778668 -0.412002 0.050000
0.779716 -0.395450 0.050000
0.780406 -0.378949 0.050000
0.780836 -0.362318 0.050000
0.780972 -0.345707 0.050000
0.780833 -0.329015 0.050000
0.780405 -0.312358 0.050000
0.779673 -0.295658 0.050000
0.778633 -0.279050 0.050000
0.777275 -0.262474 0.050000
0.775628 -0.246103 0.050000
0.773753 -0.229895 0.050000
0.771745 -0.213995 0.050000
0.769784 -0.198354 0.050000
0.767954 -0.182917 0.050000
0.766420 -0.167685 0.050000
0.765173 -0.152419 0.050000
0.764218 -0.137209 0.050000
0.763509 -0.121852 0.050000
0.762967 -0.106439 0.050000
0.762550 -0.090894 0.050000
0.762199 -0.075279 0.050000
0.761890 -0.059580 0.050000
0.761595 -0.043835 0.050000
0.761307 -0.028045 0.050000
0.761016 -0.012232 0.050000
0.760721 0.003601 0.050000
0.760418 0.019443 0.050000
0.760107 0.035292 0.050000
0.759788 0.051141 0.050000
0.759462 0.066987 0.050000
0.759128 0.082823 0.050000
0.758788 0.098647 0.050000
0.758445 0.114450 0.050000
0.758100 0.130230 0.050000
0.757762 0.145970 0.050000
0.757436 0.161668 0.050000
0.757140 0.177299 0.050000
0.756892 0.192864 0.050000
0.756724 0.208332 0.050000
0.756672 0.223711 0.050000
0.756789 0.238977 0.050000
0.757121 0.254176 0.050000
0.757730 0.269285 0.050000
0.758647 0.284463 0.050000
0.759837 0.299695 0.050000
0.761268 0.315175 0.050000
0.762729 0.330966 0.050000
0.764064 0.347061 0.050000
0.765060 0.363520 0.050000
0.765527 0.380150 0.050000
0.765422 0.396903 0.050000
0.764516 0.413672 0.050000
0.762965 0.430148 0.050000
0.760100 0.446526 0.050000
0.757107 0.461404 0.050000
-0.750000 0.475000 0.050000
0.733871 0.475000 0.050000
0.717742 0.475000 0.050000
0.701613 0.475000 0.050000
0.685484 0.475000 0.050000
0.669355 0.475000 0.050000
0.653226 0.475000 0.050000
0.637097 0.475000 0.050000
0.620968 0.475000 0.050000
0.604839 0.475000 0.050000
0.588710 0.475000 0.050000
0.572581 0.475000 0.050000
0.556452 0.475000 0.050000
0.540323 0.475000 0.050000
0.524194 0.475000 0.050000
0.508065 0.475000 0.050000
0.491935 0.475000 0.050000
0.475807 0.475000 0.050000
0.459677 0.475000 0.050000
0.443548 0.475000 0.050000
0.427419 0.475000 0.050000
0.411290 0.475000 0.050000
0.395161 0.475000 0.050000
0.379032 0.475000 0.050000
0.362903 0.475000 0.050000
0.346774 0.475000 0.050000
0.330645 0.475000 0.050000
0.314516 0.475000 0.050000
0.298387 0.475000 0.050000
0.282258 0.475000 0.050000
0.266129 0.475000 0.050000
0.250000 0.475000 0.050000
0.233871 0.475000 0.050000
0.217742 0.475000 0.050000
0.201613 0.475000 0.050000
0.185484 0.475000 0.050000
0.169355 0.475000 0.050000
0.153226 0.475000 0.050000
0.137097 0.475000 0.050000
0.120968 0.475000 0.050000
0.104839 0.475000 0.050000
0.088710 0.475000 0.050000
0.072581 0.475000 0.050000
0.056452 0.475000 0.050000
0.040323 0.475000 0.050000
0.024194 0.475000 0.050000
0.008065 0.475000 0.050000
-0.008065 0.475000 0.050000
-0.024194 0.475000 0.050000
-0.040323 0.475000 0.050000
-0.056452 0.475000 0.050000
-0.072581 0.475000 0.050000
-0.088710 0.475000 0.050000
-0.104839 0.475000 0.050000
-0.120968 0.475000 0.050000
-0.137097 0.475000 0.050000
-0.153226 0.475000 0.050000
-0.169355 0.475000 0.050000
-0.185484 0.475000 0.050000
-0.201613 0.475000 0.050000
-0.217742 0.475000 0.050000
-0.233871 0.475000 0.050000
-0.250000 0.475000 0.050000
-0.266129 0.475000 0.050000
-0.282258 0.475000 0.050000
-0.298387 0.475000 0.050000
-0.314516 0.475000 0.050000
-0.330645 0.475000 0.050000
-0.346774 0.475000 0.050000
-0.362903 0.475000 0.050000
-0.379032 0.475000 0.050000
-0.395161 0.475000 0.050000
-0.411290 0.475000 0.050000
-0.427419 0.475000 0.050000
-0.443548 0.475000 0.050000
-0.459677 0.475000 0.050000
-0.475807 0.475000 0.050000
-0.491935 0.475000 0.050000
-0.508065 0.475000 0.050000
-0.524194 0.475000 0.050000
-0.540323 0.475000 0.050000
-0.556452 0.475000 0.050000
-0.572581 0.475000 0.050000
-0.588710 0.475000 0.050000
-0.604839 0.475000 0.050000
-0.620968 0.475000 0.050000
-0.637097 0.475000 0.050000
-0.653226 0.475000 0.050000
-0.669355 0.475000 0.050000
-0.685484 0.475000 0.050000
-0.701613 0.475000 0.050000
-0.717742 0.475000 0.050000
-0.733871 0.475000 0.050000
-0.750000 -0.500000 0.050000
-0.756241 0.460958 0.050000
-0.759000 0.445987 0.050000
-0.761686 0.429509 0.050000
-0.763203 0.413039 0.050000
-0.764137 0.396176 0.050000
-0.764363 0.379460 0.050000
-0.764092 0.362718 0.050000
-0.763361 0.346249 0.050000
-0.762352 0.329953 0.050000
-0.761158 0.313970 0.050000
-0.759976 0.298226 0.050000
-0.758867 0.282660 0.050000
-0.757948 0.267265 0.050000
-0.757224 0.251876 0.050000
-0.756697 0.236542 0.050000
-0.756349 0.221135 0.050000
-0.756134 0.205704 0.050000
-0.756030 0.190196 0.050000
-0.756002 0.174649 0.050000
-0.756033 0.159043 0.050000
-0.756103 0.143406 0.050000
-0.756204 0.127733 0.050000
-0.756327 0.112043 0.050000
-0.756469 0.096331 0.050000
-0.756627 0.080615 0.050000
-0.756797 0.064885 0.050000
-0.756979 0.049161 0.050000
-0.757169 0.033427 0.050000
-0.757363 0.017706 0.050000
-0.757559 0.001989 0.050000
-0.757753 -0.013700 0.050000
-0.757949 -0.029360 0.050000
-0.758155 -0.044964 0.050000
-0.758387 -0.060505 0.050000
-0.758674 -0.075955 0.050000
-0.759044 -0.091315 0.050000
-0.759549 -0.106550 0.050000
-0.760231 -0.121701 0.050000
-0.761159 -0.136717 0.050000
-0.762376 -0.151730 0.050000
-0.763912 -0.166675 0.050000
-0.765793 -0.181758 0.050000
-0.767922 -0.196971 0.050000
-0.770257 -0.212429 0.050000
-0.772626 -0.228206 0.050000
-0.774913 -0.244236 0.050000
-0.777002 -0.260581 0.050000
-0.778804 -0.277088 0.050000
-0.780291 -0.293787 0.050000
-0.781422 -0.310552 0.050000
-0.782216 -0.327395 0.050000
-0.782648 -0.344254 0.050000
-0.782753 -0.361106 0.050000
-0.782483 -0.377968 0.050000
-0.781890 -0.394737 0.050000
-0.780846 -0.411557 0.050000
-0.779468 -0.428139 0.050000
-0.777327 -0.444917 0.050000
-0.774827 -0.461047 0.050000
-0.770027 -0.477754 0.050000
-0.765114 -0.491322 0.050000
-0.733871 -0.500000 0.050000
-0.717742 -0.500000 0.050000
-0.701613 -0.500000 0.050000
-0.685484 -0.500000 0.050000
-0.669355 -0.500000 0.050000
-0.653226 -0.500000 0.050000
-0.637097 -0.500000 0.050000
-0.620968 -0.500000 0.050000
-0.604839 -0.500000 0.050000
-0.588710 -0.500000 0.050000
-0.572581 -0.500000 0.050000
-0.556452 -0.500000 0.050000
-0.540323 -0.500000 0.050000
-0.524194 -0.500000 0.050000
-0.508065 -0.500000 0.050000
-0.491935 -0.500000 0.050000
-0.475807 -0.500000 0.050000
-0.459677 -0.500000 0.050000
-0.443548 -0.500000 0.050000
-0.427419 -0.500000 0.050000
-0.411290 -0.500000 0.050000
-0.395161 -0.500000 0.050000
-0.379032 -0.500000 0.050000
-0.362903 -0.500000 0.050000
-0.346774 -0.500000 0.050000
-0.330645 -0.500000 0.050000
-0.314516 -0.500000 0.050000
-0.298387 -0.500000 0.050000
-0.282258 -0.500000 0.050000
-0.266129 -0.500000 0.050000
-0.250000 -0.500000 0.050000
-0.233871 -0.500000 0.050000
-0.217742 -0.500000 0.050000
-0.201613 -0.500000 0.050000
-0.185484 -0.500000 0.050000
-0.169355 -0.500000 0.050000
-0.153226 -0.500000 0.050000
-0.137097 -0.500000 0.050000
-0.120968 -0.500000 0.050000
-0.104839 -0.500000 0.050000
-0.088710 -0.500000 0.050000
-0.072581 -0.500000 0.050000
-0.056452 -0.500000 0.050000
-0.040323 -0.500000 0.050000
-0.024194 -0.500000 0.050000
-0.008065 -0.500000 0.050000
0.008065 -0.500000 0.050000
0.024194 -0.500000 0.050000
0.040323 -0.500000 0.050000
0.056452 -0.500000 0.050000
0.072581 -0.500000 0.050000
0.088710 -0.500000 0.050000
0.104839 -0.500000 0.050000
0.120968 -0.500000 0.050000
0.137097 -0.500000 0.050000
0.153226 -0.500000 0.050000
0.169355 -0.500000 0.050000
0.185484 -0.500000 0.050000
0.201613 -0.500000 0.050000
0.217742 -0.500000 0.050000
0.233871 -0.500000 0.050000
0.250000 -0.500000 0.050000
0.266129 -0.500000 0.050000
0.282258 -0.500000 0.050000
0.298387 -0.500000 0.050000
0.314516 -0.500000 0.050000
0.330645 -0.500000 0.050000
0.346774 -0.500000 0.050000
0.362903 -0.500000 0.050000
0.379032 -0.500000 0.050000
0.395161 -0.500000 0.050000
0.411290 -0.500000 0.050000
0.427419 -0.500000 0.050000
0.443548 -0.500000 0.050000
0.459677 -0.500000 0.050000
0.475807 -0.500000 0.050000
0.491935 -0.500000 0.050000
0.508065 -0.500000 0.050000
0.524194 -0.500000 0.050000
0.540323 -0.500000 0.050000
0.556452 -0.500000 0.050000
0.572581 -0.500000 0.050000
0.588710 -0.500000 0.050000
0.604839 -0.500000 0.050000
0.620968 -0.500000 0.050000
0.637097 -0.500000 0.050000
0.653226 -0.500000 0.050000
0.669355 -0.500000 0.050000
0.685484 -0.500000 0.050000
0.701613 -0.500000 0.050000
0.717742 -0.500000 0.050000
0.733871 -0.500000 0.050000
0.745262 -0.483346 0.050000
0.753225 -0.471767 0.050000
0.756759 -0.457858 0.050000
0.759523 -0.442369 0.050000
0.761333 -0.426748 0.050000
0.762811 -0.410681 0.050000
0.763844 -0.394591 0.050000
0.764608 -0.378307 0.050000
0.765054 -0.362014 0.050000
0.765230 -0.345616 0.050000
0.765115 -0.329229 0.050000
0.764702 -0.312779 0.050000
0.763979 -0.296381 0.050000
0.762918 -0.279959 0.050000
0.761507 -0.263662 0.050000
0.759749 -0.247416 0.050000
0.757685 -0.231402 0.050000
0.755464 -0.215539 0.050000
0.753226 -0.199903 0.050000
0.751232 -0.184445 0.050000
0.749555 -0.168990 0.050000
0.748283 -0.153643 0.050000
0.747366 -0.138160 0.050000
0.746719 -0.122681 0.050000
0.746267 -0.107085 0.050000
0.745924 -0.091451 0.050000
0.745642 -0.075741 0.050000
0.745382 -0.059997 0.050000
0.745127 -0.044210 0.050000
0.744865 -0.028402 0.050000
0.744594 -0.012573 0.050000
0.744310 0.003267 0.050000
0.744014 0.019116 0.050000
0.743706 0.034967 0.050000
0.743386 0.050820 0.050000
0.743054 0.066667 0.050000
0.742710 0.082510 0.050000
0.742356 0.098340 0.050000
0.741991 0.114158 0.050000
0.741620 0.129952 0.050000
0.741243 0.145723 0.050000
0.740871 0.161456 0.050000
0.740512 0.177153 0.050000
0.740191 0.192791 0.050000
[...]
CELL_DATA 34596
SCALARS Mises_Stress_Abs(MPa) float 1
LOOKUP_TABLE default
29.493900
31.367600
21.893300
26.453700
28.930700
26.736500
29.478000
28.370600
19.787900
30.162800
7.801000
25.961800
14.426300
3.554570
1.172990
0.569948
0.476032
0.204652
10.724900
0.114186
1.273310
5.232940
15.998700
0.933102
0.724191
0.736672
0.374340
0.190965
15.914100
9.097980
14.109500
4.505780
6.304980
7.486280
11.327300
13.017200
10.261700
6.957280
11.298200
7.581000
11.872500
13.950400
15.832500
17.468700
8.059810
11.685300
0.762500
1.017660
0.700004
0.732360
0.370253
13.782400
15.992500
13.583900
10.560400
8.447250
14.432400
17.100300
14.629800
15.575000
15.585400
13.985900
14.916700
4.826510
13.622100
15.458300
4.872020
12.271500
10.121100
0.559085
0.984500
1.036730
0.939695
0.774166
13.856600
9.770800
16.539200
32.486500
10.511400
10.245300
35.370000
33.888800
10.979600
15.355200
38.401800
11.908000
9.889560
35.560700
36.388500
18.260800
36.290600
35.144300
0.959327
1.272230
0.970348
1.179000
1.040400
7.391980
8.661470
13.275200
11.526200
17.140800
20.433700
9.328180
8.675920
13.874800
7.983130
1.274450
1.510600
1.169400
1.243770
8.177170
6.450950
5.955870
2.604210
3.372300
11.329000
7.084250
9.583480
1.113180
12.027900
10.540100
14.213200
9.186050
13.059400
7.829320
5.755930
1.677550
1.311740
1.307140
1.566450
1.739120
6.188780
7.907560
9.203140
8.449630
5.380530
8.547700
7.522910
7.372640
6.290060
7.410430
1.645880
2.078450
1.814550
1.563000
1.570620
6.516100
7.023320
5.004030
7.674960
6.838990
3.980650
5.656770
7.540550
9.985620
6.484850
1.786190
2.524040
1.600460
1.997840
2.186440
3.928890
6.075180
6.395960
7.097480
5.040240
1.802140
2.249450
2.590150
2.669170
1.991510
2.537570
6.773920
7.519800
6.560230
2.651720
4.870470
5.441400
4.808600
7.488430
3.650120
2.715720
2.490850
2.383390
3.488220
1.922200
5.279580
6.825970
7.639540
6.432690
4.583320
5.075820
4.039390
4.579840
3.389720
5.420010
2.688650
2.995280
3.248050
2.104290
6.783000
3.315780
5.905080
7.308880
6.843560
7.929860
4.083420
3.727470
5.234830
3.100840
3.907280
2.205140
3.205780
3.380500
3.768470
7.567160
4.617030
9.226080
8.261960
10.813000
6.986360
3.307870
3.712480
3.800280
2.902310
3.237270
3.744940
4.544930
3.998890
3.841080
3.756780
9.751270
9.897830
7.734330
8.834060
3.316210
2.700170
12.206300
3.008980
2.544680
3.037510
7.979500
5.013470
3.690800
7.002180
5.385070
15.658500
9.014750
8.746430
14.668200
12.613600
2.468550
2.353080
2.225350
2.283430
2.713490
12.262900
5.561130
5.551760
5.809990
9.689600
15.895700
6.405400
10.602000
19.284000
11.127400
1.831410
2.226980
1.971240
1.826100
2.120470
13.474400
26.261900
7.854470
23.610300
26.740000
6.494530
7.650050
23.710800
24.131000
10.396600
9.161100
11.451000
28.048500
13.437900
26.708900
10.430000
15.141600
1.751360
1.491560
1.738820
1.787990
1.070170
7.605780
15.439800
13.561400
6.146190
8.482470
10.225800
12.978100
15.035200
14.743800
5.888390
11.630400
9.576660
9.968920
13.434400
13.947300
11.902400
13.016500
1.465800
0.780500
1.156220
1.367160
1.370300
7.452650
11.000900
7.205010
8.974840
6.333760
1.942670
10.796400
14.447800
2.969670
8.984910
8.663520
3.585150
14.812500
1.966960
6.321230
11.737800
3.637940
0.359591
0.841444
1.138710
1.082180
1.010930
9.323580
5.974850
8.250330
8.336460
9.786740
9.428270
11.123300
9.901470
9.760230
9.765720
4.469440
9.787700
11.220600
13.401900
12.700100
10.030300
12.357100
0.258760
1.003970
0.541728
0.707515
0.749714
3.320620
20.647400
6.224460
20.109700
15.516100
12.933000
8.799750
17.835100
21.782300
19.763800
21.974800
4.404640
16.986500
8.374790
13.738500
1.551240
19.785100
0.772446
0.553294
0.342939
0.823056
0.243817
0.016409
3.705130
6.247530
1.818420
2.328420
5.217960
3.655390
3.210270
1.782310
3.014340
1.744270
2.140080
1.315710
1.321460
2.569740
2.012680
1.283450
1.854800
1.312890
1.498580
1.464050
5.226820
5.629950
3.959450
5.004880
4.177410
4.256520
3.658270
4.369700
5.339490
2.951830
1.474550
3.570790
5.232310
1.995970
1.063060
1.383400
4.062890
2.792510
4.859020
4.650020
5.056580
2.280370
2.388800
1.432900
2.291440
1.339060
2.252590
1.694570
2.263030
2.088460
2.794110
3.018080
2.623270
0.733711
1.791100
1.154010
1.080360
1.831650
1.524830
1.452210
1.648500
1.050790
1.456600
2.534640
1.447030
1.659480
1.710180
1.874580
1.693390
2.904210
2.124940
2.013470
2.621050
2.103180
2.537480
2.445120
1.647460
0.796568
4.048690
3.117900
3.432630
3.466570
2.695760
3.556770
3.566490
3.872200
1.687200
4.343520
3.013780
3.697350
4.053950
1.999590
3.840620
2.974440
3.850640
2.969170
3.651430
3.249900
3.410320
2.518700
4.013750
3.404130
3.771400
3.084730
3.668540
2.991580
2.705000
1.095190
2.164220
2.957880
7.367670
7.493590
3.271640
4.479100
3.536070
5.508590
4.610320
6.306520
8.943350
8.391560
8.752490
6.503700
7.487170
6.342180
5.214990
5.585420
6.049580
8.559870
2.808040
3.231790
2.855320
3.851580
1.819550
1.767060
3.729940
4.819680
5.513870
6.286910
7.068540
1.997410
2.289050
0.001198
0.000651
5.341670
4.420600
3.812820
4.215980
4.087770
5.626540
1.615180
0.002107
0.004025
1.803480
5.328440
2.568410
0.001135
5.898200
0.002096
0.823579
0.914410
3.028370
1.883510
1.487940
0.003587
0.912736
3.045530
5.801070
2.467900
0.007274
3.003460
5.937210
1.266250
0.001156
2.078410
0.001779
0.863358
2.056420
0.554276
0.275159
5.679810
0.003144
2.796900
3.360790
0.006543
6.256730
2.845160
0.001167
0.786602
1.921280
2.018560
0.001588
0.757327
1.065220
0.003130
0.273327
3.315430
5.781850
0.006376
2.684530
0.001128
0.001615
6.138140
2.991640
2.378860
3.130210
1.309960
3.758980
4.150170
0.001161
0.006267
5.559770
0.003055
2.712740
0.863108
3.018520
2.865130
6.034010
2.284880
0.001949
0.001168
0.000777
5.464910
7.683710
7.217080
0.006193
5.092040
0.003037
2.777600
2.869780
0.971457
2.940990
5.660080
0.003051
0.000623
0.001871
0.002874
6.308980
7.980820
5.389030
0.006167
5.758340
9.455870
1.636760
2.599090
0.003024
2.108080
4.743200
5.161200
2.805330
3.800800
0.002926
0.002096
0.000862
3.448880
0.003711
0.006151
3.601620
6.885430
8.919380
0.000965
0.003025
3.739520
2.804380
1.800890
1.917110
4.515240
2.862020
8.688640
0.001602
0.003622
0.854102
3.721890
13.831800
9.458960
12.703600
0.006069
6.681220
3.395750
3.704960
0.002970
2.428040
1.201930
2.489350
2.532950
2.585630
3.779610
0.001713
8.699630
6.274320
6.229400
3.351320
5.874920
1.889250
3.148880
0.570138
0.006094
0.001163
3.071580
0.002885
1.163400
2.795420
4.713510
6.411840
4.466900
3.102630
4.508380
6.331440
6.351740
4.969900
2.225060
2.678740
1.093490
2.263350
0.587714
1.988320
1.401000
0.492152
2.609490
2.514910
0.001468
0.003115
3.210540
4.145650
6.288800
2.127610
4.301620
3.650720
6.202780
4.543020
4.540170
6.659250
5.027430
6.744460
7.360820
3.747520
0.838211
7.335620
6.863770
4.525690
6.803410
2.256000
7.007650
8.700660
3.805230
2.541110
7.751930
3.676910
6.747250
6.848070
8.111480
10.754800
2.599740
11.283600
4.908320
3.582340
3.424300
4.328330
2.738400
3.079500
0.704576
3.812960
3.259180
3.797450
3.219600
2.305020
2.483780
2.398810
3.519690
3.844380
4.896540
4.123260
3.315850
3.233640
3.405880
1.706680
2.003350
0.004121
1.002520
3.455580
2.876950
2.054760
8.024370
9.253160
10.028000
6.050550
8.935970
5.456800
6.443740
1.039130
3.863200
1.859550
4.208950
4.909250
2.336260
1.752900
2.989940
3.206280
2.968200
1.349440
1.722700
3.172360
1.299800
3.786230
1.132050
2.303020
4.037300
2.311190
2.238960
4.537350
6.835990
2.073570
4.361490
3.681940
3.036080
2.646430
4.644720
6.840220
6.561160
2.778190
2.551440
3.800550
3.272560
4.036660
3.417860
4.931880
3.527500
3.514980
2.456850
3.815430
3.346040
1.718790
3.908790
2.146620
4.157330
3.685120
4.066490
2.007200
2.066480
1.019800
1.881250
2.858310
1.778670
4.807810
1.663040
3.943740
3.841460
0.998136
3.488780
2.405490
1.608670
2.948110
2.074160
1.284740
1.635680
2.957510
2.437480
1.404090
1.596800
3.800110
2.169390
1.273530
2.119710
1.385080
2.471510
1.372830
1.954850
2.379240
1.475040
1.762610
0.938442
2.810250
1.393050
1.891220
2.717990
2.856720
1.999960
1.054540
1.518690
1.139050
1.682130
2.061360
1.129190
1.143270
1.474190
2.056330
1.690620
1.480590
1.929260
1.395590
1.586730
0.834099
1.228030
1.649410
0.752690
0.498628
1.561100
0.710535
0.729988
0.715480
0.751724
0.311841
0.977187
1.602180
0.970033
1.006280
0.895943
0.679181
0.572186
1.093050
1.894820
0.732455
1.692940
1.893620
1.664120
1.206610
0.414743
0.376673
0.924019
1.282440
0.540244
2.282740
3.132690
6.605170
0.761511
0.877910
0.712343
1.404910
1.839140
2.975900
1.669120
3.660700
3.483290
0.003024
2.354090
0.002703
0.003422
5.674160
6.995330
3.450120
3.822590
4.511470
0.003167
0.003528
1.960140
0.003039
3.132610
3.217360
2.735760
5.980020
4.138710
2.295820
0.003680
1.682860
0.003743
0.003084
3.451900
2.789370
2.694920
4.971250
0.667044
0.809525
0.004410
1.976300
1.357210
0.003137
0.003878
4.142560
2.273600
2.274980
2.997660
0.003201
0.004102
1.349620
0.005145
1.176740
3.253360
1.979900
2.535180
2.017810
0.920870
1.135200
0.003233
0.005986
0.004355
2.742300
1.551610
1.750870
2.002460
0.006843
0.003233
0.004568
1.361530
1.866120
1.707620
1.401220
0.007832
0.004760
0.476257
0.737101
0.003147
1.084860
1.155080
1.162960
1.832450
0.704153
1.190440
0.909055
0.808510
0.425280
0.838224
0.894511
1.883830
9.737640
6.398840
5.424950
12.381800
8.059670
3.588730
0.003460
0.002055
6.383770
3.429290
11.545900
5.630310
6.773310
10.015300
0.002136
4.846460
3.206180
0.003108
7.757330
5.096900
5.753420
9.379450
4.233850
2.677650
4.630590
0.002339
0.003370
0.003041
7.388140
5.461640
8.343190
4.301560
3.130860
4.820150
9.224860
9.435260
9.765420
6.343030
9.702350
9.973510
7.951460
8.452260
10.221700
10.717400
12.037700
10.713400
12.115000
11.546900
11.160400
12.694900
11.541300
11.853300
10.317200
11.122600
1.776770
11.137800
11.809600
6.915170
4.437490
2.712660
12.360000
12.897200
9.233240
5.842050
6.116110
4.727660
5.095950
5.392060
5.527760
5.486250
5.266690
5.164250
5.066690
4.784420
5.479430
6.369690
6.002730
6.848800
6.350600
6.431920
5.700470
5.761490
6.206730
5.930970
6.166350
6.405490
7.250140
8.485280
2.994160
7.406840
7.765480
5.760120
7.981130
6.439950
13.518300
5.024890
13.077200
12.086300
13.420600
6.829840
6.170010
0.823766
1.000670
1.112960
0.899602
2.488300
1.234880
1.756720
0.682648
0.552165
4.102040
0.949110
0.712558
0.798623
1.075310
1.004520
0.607280
0.893148
0.543294
1.139050
1.933470
1.136930
2.574430
8.150570
5.024700
6.531660
8.573490
9.217370
9.590040
4.706050
7.100730
3.303570
1.858520
4.557160
4.882440
4.357550
4.104420
4.444110
4.804440
4.582900
4.768730
4.672880
4.758700
4.842440
4.975370
5.337060
4.766530
3.573780
5.112010
5.144020
5.317170
5.385710
1.887230
4.942520
10.854400
9.863020
9.771210
5.975200
9.112900
8.370680
8.855480
6.812190
8.484960
4.650890
3.353350
8.932580
9.699120
9.457760
9.662750
9.963670
9.241540
10.237700
9.320470
9.953200
10.187500
10.563700
10.846200
10.524800
10.365000
10.488500
11.490300
6.121360
11.312300
4.929200
11.201900
9.445230
9.623670
12.636200
9.941910
15.343300
13.885000
14.504100
13.097700
14.892400
15.020500
15.454600
15.795800
14.434800
13.943200
15.585000
16.245700
16.021300
18.111600
18.245000
16.650500
16.980200
15.994400
9.058330
6.814810
15.801400
9.888080
13.984000
6.783250
10.295500
0.001606
5.119930
0.002669
7.107090
15.523600
4.865330
9.319790
14.614700
0.002437
8.671050
0.004241
6.240440
7.936020
5.901130
13.370700
14.512700
9.325530
4.102540
6.176630
0.002091
0.003646
0.002602
0.003991
0.003501
0.003237
0.004914
0.004737
0.003340
0.009632
0.006147
0.127063
0.433400
0.256281
0.008643
0.264514
3.807010
5.086430
3.259380
2.277620
1.896150
1.137920
0.834858
0.398630
0.214743
0.264034
0.176678
0.059951
0.037933
0.012991
0.009889
0.084436
0.052164
0.027395
0.021124
0.008417
0.006102
0.021966
0.038128
0.019105
0.009925
0.006721
0.005499
0.021050
0.039989
0.027939
0.015279
0.010619
0.008551
0.023030
0.040213
0.033054
0.021775
0.015220
0.011945
0.023193
0.039314
0.035627
0.025802
0.018895
0.015000
0.024970
0.038374
0.036505
0.028209
0.021412
0.017454
0.025469
0.037272
0.036609
0.029425
0.023010
0.019152
0.026389
0.036274
0.036152
0.029853
0.023774
0.020074
0.026619
0.035152
0.035310
0.029602
0.023804
0.020208
0.026680
0.033856
0.034023
0.028737
0.023106
0.019554
0.026005
0.032140
0.032230
0.027220
0.021681
0.018093
0.024720
0.029843
0.029780
0.025019
0.019512
0.015819
0.022331
0.026710
0.026597
0.022111
0.016647
0.012761
0.019093
0.022762
0.022685
0.018665
0.013302
0.009116
0.015293
0.018439
0.018588
0.015257
0.010250
0.005774
0.013650
0.015830
0.015942
0.013414
0.009430
0.006008
0.017642
0.018142
0.017195
0.014970
0.012197
0.010277
0.024857
0.024503
0.022236
0.019332
0.016904
0.015482
0.032771
0.031890
0.028416
0.024468
0.021831
0.020413
0.039012
0.037995
0.033708
0.029011
0.026033
0.024543
0.042243
0.041680
0.037339
0.032176
0.029105
0.027576
0.043292
0.043017
0.038875
0.033867
0.030877
0.029437
0.041858
0.042177
0.038693
0.034138
0.031469
0.030191
0.038970
0.039837
0.037200
0.033321
0.031078
0.030021
0.035438
0.036693
0.034852
0.031769
0.029976
0.029160
0.031602
0.033214
0.032148
0.029778
0.028440
0.027845
0.028048
0.029834
0.029360
0.027654
0.026692
0.026298
0.024852
0.026770
0.026776
0.025576
0.024934
0.024693
0.022259
0.024202
0.024521
0.023711
0.023291
0.023168
0.020246
0.022187
0.022704
0.022133
0.021861
0.021809
0.018843
0.020737
0.021339
0.020888
0.020683
0.020668
0.017963
0.019797
0.020396
0.019966
0.019767
0.019760
0.017464
0.019254
0.019815
0.019330
0.019100
0.019080
0.017266
0.019019
0.019507
0.018938
0.018651
0.018610
0.017223
0.018985
0.019417
0.018741
0.018395
0.018328
0.017338
0.019129
0.019499
0.018715
0.018307
0.018215
0.017583
0.019433
0.019745
0.018843
0.018372
0.018255
0.017997
0.019921
0.020160
0.019120
0.018580
0.018432
0.018631
0.020625
0.020753
0.019545
0.018918
0.018733
0.019506
0.021568
0.021538
0.020108
0.019371
0.019134
0.020684
0.022774
0.022505
0.020795
0.019910
0.019605
0.022139
0.024232
0.023639
0.021563
0.020492
0.020093
0.023908
0.025908
0.024868
0.022357
0.021045
0.020530
0.025840
0.027693
0.026107
0.023064
0.021478
0.020816
0.027870
0.029416
0.027150
0.023560
0.021655
0.020832
0.029550
0.030746
0.027799
0.023640
0.021433
0.020433
0.030573
0.031311
0.027689
0.023115
0.020644
0.019473
0.030398
0.030624
0.026532
0.021805
0.019153
0.017828
0.028216
0.028227
0.024140
0.019610
0.016938
0.015436
0.024540
0.024245
0.020516
0.016815
0.014140
0.012360
0.019173
0.019051
0.016522
0.014105
0.011344
0.008841
0.013921
0.014420
0.013860
0.012987
0.009656
0.005541
0.012475
0.013377
0.014478
0.014366
0.010181
0.004202
0.014601
0.015768
0.017488
0.017274
0.012273
0.005785
0.017800
0.018938
0.020717
0.020182
0.014466
0.007841
0.018927
0.020136
0.022181
0.022080
0.015858
0.009053
0.018239
0.019329
0.022017
0.022533
0.015866
0.009133
0.013759
0.014743
0.018513
0.021395
0.014396
0.008080
0.016074
0.014648
0.015963
0.019591
0.011327
0.006599
0.045144
0.045479
0.041420
0.027982
0.012872
0.005028
0.100710
0.099938
0.106223
0.076453
0.018431
0.008124
0.284030
0.203360
0.065104
0.036653
0.017170
0.009092
0.173654
0.115820
0.052799
0.026392
0.014368
0.007388
0.081932
0.067436
0.040227
0.022341
0.014426
0.010596
0.036027
0.048044
0.035616
0.022351
0.015818
0.012848
0.023521
0.040763
0.034357
0.023329
0.016728
0.013286
0.017087
0.036575
0.033746
0.024132
0.016992
0.012784
0.015699
0.034002
0.033012
0.024462
0.016979
0.012065
0.015989
0.032109
0.032124
0.024424
0.016815
0.011460
0.030579
0.031132
0.024093
0.016531
0.010944
0.017198
0.029294
0.030037
0.023527
0.016080
0.010387
0.017628
0.028082
0.028843
0.022740
0.015447
0.009695
0.018353
0.026966
0.027521
0.021767
0.014667
0.008914
0.019002
0.025905
0.026128
0.020684
0.013886
0.008291
0.020698
0.025258
0.024783
0.019677
0.013377
0.008304
0.023247
0.025323
0.023849
0.019052
0.013502
0.009378
0.027522
0.026845
0.023818
0.019168
0.014537
0.011449
0.032892
0.029861
0.024991
0.020279
0.016345
0.014066
0.037531
0.033504
0.027361
0.022058
0.018569
0.016717
0.041608
0.036988
0.029824
0.024109
0.020734
0.019067
0.041962
0.038697
0.031908
0.025896
0.022549
0.020967
0.040928
0.039199
0.033305
0.027172
0.023969
0.022410
0.039597
0.039051
0.033813
0.028080
0.024959
0.023491
0.037322
0.038086
0.033893
0.028459
0.025612
0.024233
0.035410
0.036698
0.033287
0.028429
0.025859
0.024641
0.033470
0.034868
0.032069
0.027935
0.025711
0.024682
0.030911
0.032492
0.030449
0.026999
0.025190
0.024360
0.028368
0.029908
0.028455
0.025774
0.024345
0.023726
0.025566
0.027201
0.026370
0.024342
0.023297
0.022860
0.022989
0.024651
0.024305
0.022878
0.022143
0.021866
0.020624
0.022378
0.022464
0.021483
0.020999
0.020841
0.018764
0.020564
0.020933
0.020268
0.019945
0.019869
0.017463
0.019275
0.019784
0.019280
0.019039
0.019006
0.016675
0.018468
0.019015
0.018532
0.018308
0.018285
0.016332
0.018067
0.018542
0.018010
0.017750
0.017717
0.016151
0.017883
0.018304
0.017663
0.017354
0.017299
0.016135
0.017868
0.018211
0.017468
0.017098
0.017023
0.016152
0.017951
0.018255
0.017398
0.016973
0.016875
0.016294
0.018167
0.018424
0.017450
0.016966
0.016845
0.016583
0.018546
0.018733
0.017621
0.017068
0.016921
0.017060
0.019116
0.019199
0.017905
0.017269
0.017087
0.017781
0.019909
0.019820
0.018296
0.017548
0.017319
0.018718
0.020924
0.020601
0.018770
0.017880
0.017587
0.019925
0.022164
0.021505
0.019299
0.018227
0.017851
0.021283
0.023573
0.022507
0.019830
0.018541
0.018060
0.022858
0.025107
0.023507
0.020311
0.018762
0.018161
0.024390
0.026622
0.024448
0.020650
0.018840
0.018098
0.026073
0.028055
0.025145
0.020810
0.018717
0.017834
0.027566
0.029184
0.025590
0.020722
0.018378
0.017349
0.029127
0.030051
0.025672
0.020392
0.017837
0.016642
0.031274
0.030726
0.025332
0.019943
0.017103
0.015727
0.032568
0.030748
0.024835
0.019330
0.016260
0.014560
0.033173
0.030121
0.023846
0.018771
0.015259
0.013084
0.032483
0.028477
0.022571
0.018246
0.014207
0.011178
0.028154
0.025100
0.021211
0.017967
0.013224
0.008840
0.023020
0.021424
0.020123
0.018247
0.012652
0.006291
0.015942
0.017506
0.019663
0.019104
0.012868
0.004573
0.009414
0.014960
0.019988
0.020544
0.014010
0.005705
0.009093
0.015604
0.021411
0.022635
0.015911
0.008892
0.021600
0.023183
0.025441
0.025739
0.018383
0.012102
0.046015
0.044816
0.040027
0.033170
0.020963
0.013382
0.085121
0.082990
0.074729
0.050795
0.022998
0.011046
0.105403
0.103332
0.106854
0.084109
0.021495
0.009171
0.239719
0.195641
0.068172
0.038433
0.018278
0.010946
0.160887
0.121389
0.068726
0.033778
0.020822
0.011838
0.114880
0.090418
0.054971
0.033885
0.022387
0.016959
0.066600
0.064393
0.047211
0.032093
0.023762
0.019510
0.038993
0.049738
0.041774
0.030361
0.023228
0.019480
0.027092
0.041455
0.037811
0.028428
0.021548
0.017626
0.018974
0.035947
0.034837
0.026497
0.019355
0.014852
0.015047
0.032266
0.032412
0.024730
0.017135
0.011764
0.012857
0.029580
0.030436
0.023196
0.015181
0.008725
0.012239
0.027663
0.028819
0.021950
0.013676
0.006027
0.012955
0.026370
0.027556
0.021042
0.012788
0.004365
0.014614
0.025731
0.026694
0.020550
0.012691
0.005006
0.017983
0.026000
0.026344
0.020593
0.013495
0.007514
0.022413
0.027389
0.026722
0.021282
0.015158
0.010735
0.029138
0.030468
0.028008
0.022668
0.017456
0.014149
0.037036
0.035089
0.030298
0.024651
0.020002
0.017415
0.045541
0.040858
0.033443
0.026773
0.022425
0.020162
0.053253
0.046405
0.036321
0.028713
0.024197
0.022102
0.055268
0.049004
0.038374
0.029641
0.025093
0.023036
0.054238
0.048704
0.038252
0.029394
0.025052
0.023041
0.049257
0.045776
0.036478
0.028385
0.024310
0.022475
0.041829
0.041443
0.034585
0.026930
0.023453
0.021728
0.037138
0.037962
0.032453
0.025817
0.022676
0.021163
0.033568
0.035088
0.030632
0.024909
0.022163
0.020840
0.030457
0.032396
0.029066
0.024105
0.021782
0.020669
0.028293
0.029980
0.027333
0.023324
0.021366
0.020488
0.025795
0.027457
0.025576
0.022367
0.020843
0.020172
0.023440
0.024952
0.023670
0.021304
0.020158
0.019694
0.020798
0.022415
0.021825
0.020153
0.019371
0.019075
0.018426
0.020149
0.020110
0.019050
0.018542
0.018381
0.016421
0.018310
0.018718
0.018067
0.017752
0.017679
0.015107
0.017085
0.017729
0.017276
0.017058
0.017028
0.014590
0.016517
0.017132
0.016703
0.016485