# vtk DataFile Version 2.0
test
ASCII
DATASET UNSTRUCTURED_GRID
POINTS 41454 float
0.750000 -0.500000 0.050000
0.750000 0.435000 0.050000
0.771947 -0.518358 0.050000
0.780911 -0.502930 0.050000
0.799612 -0.488026 0.050000
0.806984 -0.470630 0.050000
0.814606 -0.452249 0.050000
0.818982 -0.434443 0.050000
0.822793 -0.416070 0.050000
0.825190 -0.398021 0.050000
0.826881 -0.379693 0.050000
0.827618 -0.361530 0.050000
0.827597 -0.343253 0.050000
0.826733 -0.325146 0.050000
0.825071 -0.307078 0.050000
0.822595 -0.289312 0.050000
0.819333 -0.271804 0.050000
0.815382 -0.254862 0.050000
0.810886 -0.238455 0.050000
0.806142 -0.222877 0.050000
0.801522 -0.207926 0.050000
0.797252 -0.193510 0.050000
0.793720 -0.179509 0.050000
0.790811 -0.165389 0.050000
0.788592 -0.151400 0.050000
0.786939 -0.137066 0.050000
0.785668 -0.122568 0.050000
0.784665 -0.107790 0.050000
0.783803 -0.092823 0.050000
0.783012 -0.077681 0.050000
0.782239 -0.062426 0.050000
0.781461 -0.047088 0.050000
0.780664 -0.031698 0.050000
0.779845 -0.016277 0.050000
0.779000 -0.000842 0.050000
0.778130 0.014597 0.050000
0.777237 0.030026 0.050000
0.776321 0.045438 0.050000
0.775386 0.060818 0.050000
0.774436 0.076158 0.050000
0.773478 0.091438 0.050000
0.772522 0.106648 0.050000
0.771585 0.121755 0.050000
0.770692 0.136747 0.050000
0.769882 0.151577 0.050000
0.769213 0.166230 0.050000
0.768750 0.180674 0.050000
0.768613 0.194878 0.050000
0.768877 0.208908 0.050000
0.769692 0.222696 0.050000
0.771159 0.236444 0.050000
0.773304 0.250255 0.050000
0.776074 0.264270 0.050000
0.779392 0.278795 0.050000
0.782882 0.294090 0.050000
0.786039 0.310278 0.050000
0.788438 0.327329 0.050000
0.789477 0.345079 0.050000
0.789131 0.363018 0.050000
0.786631 0.381221 0.050000
0.782660 0.398538 0.050000
0.774728 0.415453 0.050000
0.767710 0.429107 0.050000
-0.750000 0.435000 0.050000
0.733871 0.435000 0.050000
0.717742 0.435000 0.050000
0.701613 0.435000 0.050000
0.685484 0.435000 0.050000
0.669355 0.435000 0.050000
0.653226 0.435000 0.050000
0.637097 0.435000 0.050000
0.620968 0.435000 0.050000
0.604839 0.435000 0.050000
0.588710 0.435000 0.050000
0.572581 0.435000 0.050000
0.556452 0.435000 0.050000
0.540323 0.435000 0.050000
0.524194 0.435000 0.050000
0.508065 0.435000 0.050000
0.491935 0.435000 0.050000
0.475807 0.435000 0.050000
0.459677 0.435000 0.050000
0.443548 0.435000 0.050000
0.427419 0.435000 0.050000
0.411290 0.435000 0.050000
0.395161 0.435000 0.050000
0.379032 0.435000 0.050000
0.362903 0.435000 0.050000
0.346774 0.435000 0.050000
0.330645 0.435000 0.050000
0.314516 0.435000 0.050000
0.298387 0.435000 0.050000
0.282258 0.435000 0.050000
0.266129 0.435000 0.050000
0.250000 0.435000 0.050000
0.233871 0.435000 0.050000
0.217742 0.435000 0.050000
0.201613 0.435000 0.050000
0.185484 0.435000 0.050000
0.169355 0.435000 0.050000
0.153226 0.435000 0.050000
0.137097 0.435000 0.050000
0.120968 0.435000 0.050000
0.104839 0.435000 0.050000
0.088710 0.435000 0.050000
0.072581 0.435000 0.050000
0.056452 0.435000 0.050000
0.040323 0.435000 0.050000
0.024194 0.435000 0.050000
0.008065 0.435000 0.050000
-0.008065 0.435000 0.050000
-0.024194 0.435000 0.050000
-0.040323 0.435000 0.050000
-0.056452 0.435000 0.050000
-0.072581 0.435000 0.050000
-0.088710 0.435000 0.050000
-0.104839 0.435000 0.050000
-0.120968 0.435000 0.050000
-0.137097 0.435000 0.050000
-0.153226 0.435000 0.050000
-0.169355 0.435000 0.050000
-0.185484 0.435000 0.050000
-0.201613 0.435000 0.050000
-0.217742 0.435000 0.050000
-0.233871 0.435000 0.050000
-0.250000 0.435000 0.050000
-0.266129 0.435000 0.050000
-0.282258 0.435000 0.050000
-0.298387 0.435000 0.050000
-0.314516 0.435000 0.050000
-0.330645 0.435000 0.050000
-0.346774 0.435000 0.050000
-0.362903 0.435000 0.050000
-0.379032 0.435000 0.050000
-0.395161 0.435000 0.050000
-0.411290 0.435000 0.050000
-0.427419 0.435000 0.050000
-0.443548 0.435000 0.050000
-0.459677 0.435000 0.050000
-0.475807 0.435000 0.050000
-0.491935 0.435000 0.050000
-0.508065 0.435000 0.050000
-0.524194 0.435000 0.050000
-0.540323 0.435000 0.050000
-0.556452 0.435000 0.050000
-0.572581 0.435000 0.050000
-0.588710 0.435000 0.050000
-0.604839 0.435000 0.050000
-0.620968 0.435000 0.050000
-0.637097 0.435000 0.050000
-0.653226 0.435000 0.050000
-0.669355 0.435000 0.050000
-0.685484 0.435000 0.050000
-0.701613 0.435000 0.050000
-0.717742 0.435000 0.050000
-0.733871 0.435000 0.050000
-0.750000 -0.500000 0.050000
-0.766104 0.427302 0.050000
-0.772786 0.413572 0.050000
-0.780199 0.396564 0.050000
-0.784135 0.379282 0.050000
-0.786736 0.361029 0.050000
-0.787391 0.343125 0.050000
-0.786808 0.325214 0.050000
-0.785035 0.308057 0.050000
-0.782555 0.291374 0.050000
-0.779639 0.275595 0.050000
-0.776749 0.260362 0.050000
-0.774023 0.245645 0.050000
-0.771744 0.231299 0.050000
-0.769913 0.217028 0.050000
-0.768552 0.202855 0.050000
-0.767629 0.188592 0.050000
-0.767060 0.174233 0.050000
-0.766772 0.159736 0.050000
-0.766698 0.145113 0.050000
-0.766778 0.130365 0.050000
-0.766973 0.115521 0.050000
-0.767248 0.100589 0.050000
-0.767586 0.085601 0.050000
-0.767969 0.070557 0.050000
-0.768392 0.055490 0.050000
-0.768846 0.040388 0.050000
-0.769327 0.025287 0.050000
-0.769827 0.010165 0.050000
-0.770337 -0.004937 0.050000
-0.770850 -0.020031 0.050000
-0.771358 -0.035072 0.050000
-0.771868 -0.050045 0.050000
-0.772396 -0.064903 0.050000
-0.772981 -0.079607 0.050000
-0.773680 -0.094118 0.050000
-0.774577 -0.108398 0.050000
-0.775779 -0.122420 0.050000
-0.777403 -0.136204 0.050000
-0.779606 -0.149709 0.050000
-0.782475 -0.163192 0.050000
-0.786059 -0.176457 0.050000
-0.790470 -0.190031 0.050000
-0.795446 -0.203865 0.050000
-0.800944 -0.218252 0.050000
-0.806608 -0.233430 0.050000
-0.812098 -0.249377 0.050000
-0.817172 -0.266123 0.050000
-0.821567 -0.283502 0.050000
-0.825194 -0.301409 0.050000
-0.827910 -0.319738 0.050000
-0.829732 -0.338313 0.050000
-0.830523 -0.357165 0.050000
-0.830407 -0.376015 0.050000
-0.829069 -0.395122 0.050000
-0.826884 -0.413950 0.050000
-0.822881 -0.433182 0.050000
-0.818299 -0.451716 0.050000
-0.809725 -0.470795 0.050000
-0.801851 -0.488718 0.050000
-0.781482 -0.503382 0.050000
-0.771904 -0.519684 0.050000
-0.733871 -0.500000 0.050000
-0.717742 -0.500000 0.050000
-0.701613 -0.500000 0.050000
-0.685484 -0.500000 0.050000
-0.669355 -0.500000 0.050000
-0.653226 -0.500000 0.050000
-0.637097 -0.500000 0.050000
-0.620968 -0.500000 0.050000
-0.604839 -0.500000 0.050000
-0.588710 -0.500000 0.050000
-0.572581 -0.500000 0.050000
-0.556452 -0.500000 0.050000
-0.540323 -0.500000 0.050000
-0.524194 -0.500000 0.050000
-0.508065 -0.500000 0.050000
-0.491935 -0.500000 0.050000
-0.475807 -0.500000 0.050000
-0.459677 -0.500000 0.050000
-0.443548 -0.500000 0.050000
-0.427419 -0.500000 0.050000
-0.411290 -0.500000 0.050000
-0.395161 -0.500000 0.050000
-0.379032 -0.500000 0.050000
-0.362903 -0.500000 0.050000
-0.346774 -0.500000 0.050000
-0.330645 -0.500000 0.050000
-0.314516 -0.500000 0.050000
-0.298387 -0.500000 0.050000
-0.282258 -0.500000 0.050000
-0.266129 -0.500000 0.050000
-0.250000 -0.500000 0.050000
-0.233871 -0.500000 0.050000
-0.217742 -0.500000 0.050000
-0.201613 -0.500000 0.050000
-0.185484 -0.500000 0.050000
-0.169355 -0.500000 0.050000
-0.153226 -0.500000 0.050000
-0.137097 -0.500000 0.050000
-0.120968 -0.500000 0.050000
-0.104839 -0.500000 0.050000
-0.088710 -0.500000 0.050000
-0.072581 -0.500000 0.050000
-0.056452 -0.500000 0.050000
-0.040323 -0.500000 0.050000
-0.024194 -0.500000 0.050000
-0.008065 -0.500000 0.050000
0.008065 -0.500000 0.050000
0.024194 -0.500000 0.050000
0.040323 -0.500000 0.050000
0.056452 -0.500000 0.050000
0.072581 -0.500000 0.050000
0.088710 -0.500000 0.050000
0.104839 -0.500000 0.050000
0.120968 -0.500000 0.050000
0.137097 -0.500000 0.050000
0.153226 -0.500000 0.050000
0.169355 -0.500000 0.050000
0.185484 -0.500000 0.050000
0.201613 -0.500000 0.050000
0.217742 -0.500000 0.050000
0.233871 -0.500000 0.050000
0.250000 -0.500000 0.050000
0.266129 -0.500000 0.050000
0.282258 -0.500000 0.050000
0.298387 -0.500000 0.050000
0.314516 -0.500000 0.050000
0.330645 -0.500000 0.050000
0.346774 -0.500000 0.050000
0.362903 -0.500000 0.050000
0.379032 -0.500000 0.050000
0.395161 -0.500000 0.050000
0.411290 -0.500000 0.050000
0.427419 -0.500000 0.050000
0.443548 -0.500000 0.050000
0.459677 -0.500000 0.050000
0.475807 -0.500000 0.050000
0.491935 -0.500000 0.050000
0.508065 -0.500000 0.050000
0.524194 -0.500000 0.050000
0.540323 -0.500000 0.050000
0.556452 -0.500000 0.050000
0.572581 -0.500000 0.050000
0.588710 -0.500000 0.050000
0.604839 -0.500000 0.050000
0.620968 -0.500000 0.050000
0.637097 -0.500000 0.050000
0.653226 -0.500000 0.050000
0.669355 -0.500000 0.050000
0.685484 -0.500000 0.050000
0.701613 -0.500000 0.050000
0.717742 -0.500000 0.050000
0.733871 -0.500000 0.050000
0.764862 -0.491452 0.050000
0.777619 -0.491272 0.050000
0.786593 -0.478652 0.050000
0.795359 -0.464064 0.050000
0.800514 -0.447601 0.050000
0.805308 -0.430647 0.050000
0.808386 -0.413506 0.050000
0.810889 -0.396036 0.050000
0.812344 -0.378585 0.050000
0.813113 -0.360959 0.050000
0.813018 -0.343415 0.050000
0.812161 -0.325828 0.050000
0.810460 -0.308431 0.050000
0.807932 -0.291154 0.050000
0.804547 -0.274262 0.050000
0.800361 -0.257713 0.050000
0.795480 -0.241827 0.050000
0.790194 -0.226435 0.050000
0.784899 -0.211691 0.050000
0.780179 -0.197271 0.050000
0.776177 -0.182798 0.050000
0.773122 -0.168524 0.050000
0.770901 -0.153861 0.050000
0.769344 -0.139170 0.050000
0.768248 -0.124251 0.050000
0.767415 -0.109216 0.050000
0.766705 -0.094042 0.050000
0.766026 -0.078782 0.050000
0.765336 -0.063448 0.050000
0.764612 -0.048066 0.050000
0.763852 -0.032653 0.050000
0.763052 -0.017219 0.050000
0.762215 -0.001778 0.050000
0.761343 0.013662 0.050000
0.760437 0.029094 0.050000
0.759498 0.044509 0.050000
0.758529 0.059900 0.050000
0.757531 0.075253 0.050000
0.756509 0.090566 0.050000
0.755469 0.105817 0.050000
0.754422 0.121004 0.050000
0.753390 0.136096 0.050000
0.752408 0.151096 0.050000
0.751531 0.165969 0.050000
[...]
CELL_DATA 34596
SCALARS Mises_Stress_Abs(MPa) float 1
LOOKUP_TABLE default
85.434900
89.841500
64.020200
77.096900
83.172200
77.697600
84.143100
81.829900
56.135300
85.936500
22.056800
73.674600
40.702500
10.070600
3.454600
1.785150
1.411450
0.587264
31.488000
0.315824
3.724850
15.355300
46.826500
2.849960
2.186740
2.163310
1.104790
0.548746
46.473800
26.682100
41.313300
13.233400
18.306700
21.265500
32.815400
37.834800
29.714700
20.039700
32.166400
21.361000
33.860400
39.837100
45.116300
49.739800
23.221100
33.315100
2.378830
2.991850
2.052690
2.247760
1.077960
40.318500
46.614100
39.308400
30.989700
24.787000
41.647100
48.915700
42.153800
44.478700
44.497800
40.746000
43.188200
13.789500
39.179800
44.402000
13.896900
35.045400
28.561000
1.635710
2.738120
3.038270
2.909060
2.359640
40.255100
28.512700
48.051800
94.644000
30.899300
30.034400
102.820000
98.024200
31.358300
43.994900
109.905000
33.791000
28.155300
102.815000
104.684000
52.196800
103.669000
101.073000
2.834320
3.745010
2.866950
3.390720
3.193090
21.455600
25.352700
38.638100
33.910100
50.544100
57.789900
26.374500
24.709200
39.493700
22.799000
3.820050
4.291810
3.526290
3.647290
23.887000
18.837700
17.474500
7.766980
10.019300
33.382800
20.706000
27.877100
3.315240
35.357500
31.501900
40.011700
26.095900
36.975400
22.260800
16.352700
4.955530
3.955840
3.892080
4.537520
5.065090
18.353300
23.399100
26.897700
24.685100
16.325000
23.918400
21.119200
20.919500
17.867600
20.962600
4.910280
5.976730
5.416510
4.624840
4.629860
19.331100
20.489500
15.268100
22.433600
20.082600
11.142100
16.050400
21.379200
28.028000
18.243500
5.329320
7.449590
4.782550
5.820340
6.344750
11.092700
17.016500
18.074100
19.861900
14.247100
5.304000
6.678230
7.716310
7.718330
5.888300
7.391270
19.791900
21.952800
19.091700
7.556090
13.666500
15.396600
13.598800
20.968300
10.207000
7.867420
7.280860
7.100620
10.290000
5.724410
14.782600
19.821100
22.330500
18.778200
13.096200
14.317100
11.379100
12.796300
9.545330
15.154700
7.942130
8.870390
9.411470
6.163590
19.796200
9.860120
16.961000
21.142200
19.347200
23.169100
11.539300
10.438300
14.617800
8.664850
11.010100
6.552240
9.369630
10.016700
10.899400
22.086200
13.611400
26.616000
23.926600
30.870700
20.452400
9.220450
10.361800
10.694100
8.159000
9.084230
10.796900
13.330900
11.870800
11.356400
10.879600
28.154900
28.645000
22.566300
25.830700
9.231630
7.540010
34.973000
8.497670
7.106080
8.521360
23.346900
14.460900
10.615200
20.586700
15.606400
45.032400
26.227400
25.193800
42.524600
36.776400
6.893960
6.605720
6.192080
6.354370
7.609410
35.788300
16.006000
15.970500
16.742800
28.088500
45.782700
18.470900
30.534300
56.044200
32.388400
5.082990
6.210430
5.504250
5.077820
5.992560
38.985700
76.042000
22.647700
68.285100
77.372400
18.742400
22.068500
68.721000
69.794300
29.992400
26.372300
32.965100
81.207700
38.996700
77.416600
30.097800
43.645600
4.860980
4.152410
4.881360
4.981140
2.954510
21.980800
44.720700
39.259000
17.741800
24.528900
29.559300
37.628500
43.547500
42.756400
17.158000
33.590200
27.576200
28.733200
38.741800
40.247700
34.307400
37.550700
4.051050
2.161540
3.196910
3.823710
3.897710
21.612700
31.825600
20.747600
26.013600
18.223400
5.485100
31.261900
41.703500
8.600460
25.889500
24.973900
10.447300
42.786600
5.782570
18.187200
33.881900
10.558000
0.982936
2.332420
3.141630
3.067210
2.778020
26.968600
17.386300
23.934500
24.087300
28.337200
27.266800
32.225200
28.651300
28.314300
28.243900
12.871700
28.297700
32.466000
38.737100
36.702700
29.020000
35.690400
0.720261
2.811470
1.474820
1.954650
2.250770
9.626000
59.689600
18.124700
58.202500
44.971500
37.560200
25.536200
51.676800
63.023500
57.155600
63.552100
12.728200
49.202800
24.292800
39.799200
4.461910
57.252800
2.231350
1.585080
1.012730
2.413740
0.700892
0.073881
10.120300
16.962700
5.332820
5.941880
14.351000
10.280700
9.048420
5.091150
8.310470
4.934870
6.081240
3.984970
3.709220
7.215780
6.161760
3.512450
5.140730
3.406620
3.974880
3.830130
14.245100
15.356900
11.150300
13.679400
11.483000
11.879900
10.041000
11.931900
14.576400
8.098500
4.007560
9.871900
14.817500
5.394140
3.090110
4.078990
11.294300
7.683890
13.704800
13.190700
14.184500
6.697520
6.861940
4.145000
6.735860
4.188250
6.120920
4.615750
6.049430
5.577060
7.469290
8.071500
7.113920
1.844550
4.801020
3.399370
3.074130
4.832530
4.060430
3.867940
4.438860
3.041150
3.928160
7.236110
4.096260
4.712750
4.880590
5.382970
4.910470
8.271850
6.081310
5.735700
7.462830
5.953560
7.240710
7.007050
4.470220
2.321680
10.947900
8.565690
9.314200
9.479690
7.400290
9.780860
9.764390
10.612400
4.704170
12.039700
8.310160
10.140800
11.172900
5.725590
10.685100
8.200220
10.590700
8.433470
10.305000
9.143270
9.699390
7.128350
11.510500
9.681960
10.769200
8.765320
10.451300
8.486010
7.479840
3.097590
6.146300
8.178360
20.296400
20.593400
9.314070
12.347700
9.835130
15.312700
12.877400
17.420800
25.366000
23.822100
24.022600
18.236900
21.128800
17.663000
14.490000
15.443800
16.730300
23.472800
7.809220
9.054370
8.029810
10.699700
5.017990
4.905720
10.437600
13.542200
15.520200
17.705600
19.982000
5.875590
6.473200
0.003261
0.001766
14.334800
12.154100
10.389400
11.944000
11.313500
15.857900
4.570380
0.006041
0.011483
4.914190
14.870600
6.906460
0.003137
16.002600
0.005696
1.941600
2.597930
8.559080
5.525430
3.833070
0.010257
2.546680
8.800210
16.243800
6.752930
0.020738
8.188200
16.082900
3.621960
0.003339
6.103520
0.004901
2.499030
5.503390
1.812010
0.967959
15.771400
0.008922
7.771630
9.544940
0.018593
17.145100
7.657990
0.003422
2.356770
5.584620
6.029290
0.004422
1.928540
2.940900
0.008855
0.879952
9.510280
16.140700
0.018057
7.343640
0.003322
0.004560
16.735300
8.174590
6.884860
8.799340
3.720540
10.728800
11.971800
0.003293
0.017715
15.364000
0.008622
7.529810
2.556100
8.545430
7.720010
16.648600
6.145970
0.005603
0.003404
0.002196
15.249000
21.770700
20.465400
0.017481
14.139900
0.008562
7.625430
8.223920
2.791320
8.030330
15.521300
0.008673
0.001795
0.005362
0.008220
17.051500
22.378000
15.143900
0.017389
16.264100
26.739100
4.691700
7.202570
0.008516
5.943800
13.017100
14.306700
7.612720
10.770400
0.008474
0.006072
0.002456
9.769140
0.010597
0.017330
10.146500
19.502300
25.183800
0.002692
0.008506
10.274800
7.752060
5.067510
5.542600
12.479900
7.772530
24.419100
0.004674
0.010512
2.567300
10.094500
38.908500
26.610600
35.739500
0.017076
18.869600
9.222290
10.541700
0.008343
6.701940
3.409240
7.076100
7.379030
7.124760
10.478000
0.004992
24.480100
17.467600
17.497200
9.592130
16.567800
5.023310
8.816290
1.699740
0.017063
0.003262
8.637900
0.008053
3.243450
7.903300
13.268400
17.984100
12.869300
8.286230
12.937600
17.840400
17.971800
13.948100
6.625910
7.786290
2.935210
6.356030
1.647310
5.662530
3.366430
1.480210
7.177730
7.020120
0.004082
0.008679
8.942270
11.542000
17.707800
6.056450
12.147800
9.840710
17.688600
12.416300
12.822300
19.077500
14.208100
19.001800
20.776300
10.630500
2.379200
20.709900
19.388300
12.585500
19.269600
6.068500
19.771500
24.563500
10.534600
7.035580
21.786400
9.686980
19.084200
19.461900
22.376600
30.283900
7.299850
31.780000
13.738900
10.137900
9.680460
12.228400
7.754680
8.735160
2.041170
10.792000
9.187300
10.788600
9.073980
6.240540
6.917500
6.788220
9.995690
11.117700
13.862700
12.089200
9.852720
8.810340
9.487400
4.626680
5.960560
0.014417
2.796480
9.723500
8.094290
5.820110
21.790500
25.564400
27.972800
17.109600
24.713500
15.145300
17.554600
2.909600
10.957700
5.217540
11.740500
13.602900
7.090850
5.664040
8.537650
9.440460
8.667780
3.475730
4.446050
9.973360
4.075010
10.954200
2.910040
6.756530
11.398800
5.954100
7.280980
14.340300
19.682800
5.339840
12.406000
9.448040
9.429660
8.247160
14.680000
19.526300
19.033000
8.101630
6.576730
9.716960
10.072300
13.001000
9.321020
15.584900
11.570300
10.247400
7.696600
11.811100
8.447600
4.379690
9.919140
5.482980
10.701200
9.742820
12.745000
5.169970
6.625530
3.356340
6.131800
9.139570
4.798700
13.900200
5.145520
11.193500
11.412400
2.623940
8.923570
6.116770
4.036700
8.573180
6.051760
3.584640
5.456630
8.473770
7.796180
4.220520
5.054740
11.052000
6.362440
3.140620
5.385270
3.521960
6.398990
3.962140
6.449650
7.636850
4.796880
4.904710
2.531980
8.125680
3.580080
5.700030
7.853880
8.463170
5.109520
3.245100
3.794290
2.964470
5.485490
6.659810
3.737190
3.618730
4.423230
5.268670
5.390330
4.564260
6.030840
3.620800
4.095940
2.148570
3.143850
4.222870
2.031500
1.363960
4.763350
1.920850
2.213620
2.316470
2.072080
0.806447
2.622580
4.716020
3.269420
3.179040
2.546770
1.828240
1.407620
3.390630
5.824000
1.923700
4.852620
5.187310
4.911540
3.146170
1.176700
1.012080
2.231990
3.183130
1.325570
5.687950
7.926380
19.151700
2.182550
3.150850
2.347950
4.960980
6.369720
10.188800
5.441550
12.262500
9.357240
0.008173
6.385170
0.006464
0.009150
17.281600
20.644500
10.132800
11.568500
13.212200
0.007468
0.009390
5.281820
0.008235
8.424320
9.763720
8.132930
17.636400
12.126300
6.148710
0.009802
4.552100
0.008909
0.008406
10.170800
8.526520
7.965320
14.666500
1.747970
2.220820
0.010516
5.295820
3.635510
0.008692
0.010366
12.225800
6.863630
6.956090
8.780510
0.009021
0.011114
3.594620
0.012576
3.188260
9.538050
6.152810
7.538750
5.991520
2.444070
3.035990
0.009440
0.014711
0.011942
8.084300
4.757220
5.417290
5.820810
0.017478
0.009696
0.012953
4.357790
5.339790
5.164100
4.164450
0.020142
0.013697
1.252790
1.979920
0.009892
3.053740
3.772000
3.559570
5.407250
2.236180
3.705520
2.476230
2.689490
1.322790
2.514010
2.962310
5.682720
29.181000
19.123700
15.775800
36.329500
23.423700
9.712680
0.009529
0.005446
17.265400
10.007400
33.868600
16.820800
19.749500
29.966500
0.005431
13.055000
8.722590
0.008485
23.409900
15.314600
16.776500
27.620900
12.364300
7.235670
12.494200
0.005716
0.009077
0.008246
22.260600
15.970300
24.552400
12.951700
9.212080
12.981300
25.170000
25.655900
26.727000
17.089900
26.662000
27.495900
21.504800
22.918200
28.296200
29.885200
34.405600
29.974600
34.733700
32.777600
31.343700
36.493700
32.640300
33.751800
28.654100
31.347600
5.468150
32.452200
34.199200
20.219300
12.905400
7.912380
35.681000
37.457500
26.940600
15.895900
16.749600
12.877100
13.891000
14.626500
15.058200
15.268900
14.594500
14.255900
13.928800
13.098800
15.302500
18.414000
16.968600
19.840400
18.227400
18.629600
16.042500
16.161900
17.678500
16.815200
17.600700
18.383600
21.156200
24.667500
8.406590
21.449400
22.587900
17.005100
23.270400
17.568300
36.978600
13.696600
35.560700
33.095600
36.904400
18.683700
16.967300
2.589080
3.118740
3.401620
2.833310
6.963330
3.691930
4.908950
2.179220
1.807860
11.224100
3.008450
2.327990
2.581760
3.451060
3.203910
1.996670
2.839160
1.758260
3.684610
5.764960
3.667060
7.366340
23.612800
14.572600
18.984700
24.892100
26.808700
28.023600
12.892300
19.538900
9.241020
5.316920
12.764500
13.780500
12.095500
11.309200
12.394400
13.513400
12.770400
13.316200
13.143400
13.337200
13.734400
14.094400
15.242000
13.462700
10.124400
14.542000
14.738000
15.199200
15.608700
5.465650
14.078400
31.583600
28.754600
28.459300
17.285000
26.314700
22.832300
24.371600
18.468100
23.341900
12.820600
9.192710
24.696600
27.055500
26.253100
26.987400
27.935800
25.535700
28.855900
25.898400
27.942200
28.746300
30.279200
30.901600
29.826000
29.394500
29.894800
33.308800
17.769600
32.520900
14.525100
32.069300
27.423200
27.894100
36.824600
28.939300
43.096100
38.421000
40.355900
36.049700
41.592400
42.026100
43.480700
44.625300
40.094000
38.528600
44.743400
46.161300
45.560700
52.268600
52.906600
47.566400
48.744000
45.711600
26.365200
19.610800
44.698900
28.773700
40.692400
19.507700
27.892800
0.004432
13.966500
0.007422
20.494900
45.849900
13.906600
27.009700
42.721400
0.006771
23.478000
0.011829
16.912600
23.061900
16.959800
39.746100
42.414800
27.464600
11.187800
16.683400
0.005692
0.010154
0.007332
0.011091
0.009704
0.008917
0.009303
0.014533
0.009275
0.027043
0.012999
0.375076
1.160940
0.685872
0.023980
0.711392
11.726100
15.455300
10.004600
7.096880
5.901460
3.548240
2.648070
1.209050
0.670877
0.668792
0.471805
0.232853
0.139818
0.053901
0.030301
0.116766
0.066400
0.054475
0.072096
0.031542
0.023297
0.164201
0.106740
0.057240
0.040975
0.032793
0.024792
0.104982
0.101778
0.077788
0.054434
0.041341
0.035561
0.128635
0.115780
0.091174
0.067979
0.053491
0.046210
0.106926
0.112802
0.098691
0.077782
0.062971
0.055297
0.111067
0.113290
0.101724
0.083731
0.069693
0.062068
0.103191
0.110102
0.102547
0.086785
0.073743
0.066479
0.102880
0.107848
0.101546
0.087652
0.075483
0.068596
0.098475
0.104193
0.099297
0.086640
0.075148
0.068543
0.095953
0.100258
0.095677
0.083926
0.072844
0.066396
0.090887
0.094858
0.090626
0.079442
0.068593
0.062170
0.085217
0.088073
0.083802
0.073100
0.062336
0.055845
0.076731
0.079080
0.074994
0.064771
0.054090
0.047443
0.066179
0.067835
0.064012
0.054570
0.044007
0.037140
0.052956
0.054516
0.051466
0.043143
0.032889
0.025625
0.040333
0.041865
0.039652
0.032866
0.023363
0.015665
0.037069
0.038158
0.035613
0.029935
0.022500
0.016900
0.048847
0.049198
0.044715
0.037928
0.032028
0.028428
0.067410
0.066924
0.059946
0.050875
0.044741
0.041384
0.083739
0.083145
0.074352
0.063358
0.056355
0.052863
0.093594
0.094296
0.085223
0.072722
0.065385
0.061757
0.099029
0.100158
0.091054
0.078541
0.071198
0.067732
0.098337
0.100541
0.092447
0.080714
0.073984
0.070845
0.093084
0.096605
0.090278
0.079931
0.074150
0.071503
0.085755
0.090069
0.085530
0.077077
0.072331
0.070262
0.077218
0.082292
0.079543
0.072881
0.069260
0.067721
0.068934
0.074441
0.073177
0.068188
0.065514
0.064474
0.061496
0.067275
0.067197
0.063524
0.061647
0.060991
0.055473
0.061313
0.062022
0.059334
0.058014
0.057646
0.050912
0.056719
0.057918
0.055834
0.054868
0.054676
0.047817
0.053509
0.054923
0.053131
0.052321
0.052214
0.045967
0.051523
0.052948
0.051205
0.050401
0.050308
0.045014
0.050486
0.051838
0.049960
0.049071
0.048944
0.044771
0.050188
0.051384
0.049295
0.048261
0.048081
0.044924
0.050403
0.051467
0.049099
0.047912
0.047666
0.045499
0.051081
0.051984
0.049320
0.047966
0.047654
0.046439
0.052202
0.052929
0.049918
0.048389
0.048004
0.047851
0.053820
0.054309
0.050883
0.049150
0.048679
0.049832
0.056007
0.056144
0.052200
0.050215
0.049633
0.052452
0.058808
0.058445
0.053835
0.051530
0.050800
0.055789
0.062244
0.061170
0.055726
0.053004
0.052082
0.059804
0.066247
0.064223
0.057737
0.054507
0.053334
0.064396
0.070635
0.067381
0.059682
0.055829
0.054357
0.069199
0.075042
0.070319
0.061238
0.056716
0.054883
0.073724
0.078860
0.072470
0.062060
0.056800
0.054600
0.076880
0.081234
0.073274
0.061589
0.055733
0.053142
0.078040
0.081202
0.071762
0.059438
0.053106
0.050169
0.075558
0.077647
0.067495
0.055188
0.048652
0.045409
0.068280
0.069890
0.060106
0.048753
0.042383
0.038751
0.058051
0.058715
0.049891
0.041036
0.034746
0.030405
0.044583
0.045334
0.039350
0.033918
0.027408
0.021072
0.033412
0.034857
0.033336
0.031669
0.023532
0.012920
0.034577
0.035566
0.036888
0.036378
0.026025
0.011740
0.043639
0.044131
0.045969
0.044741
0.032455
0.017674
0.054501
0.054338
0.055734
0.052996
0.038831
0.023877
0.059123
0.058929
0.060494
0.058492
0.043078
0.027671
0.061948
0.060888
0.062960
0.060696
0.043569
0.028297
0.050401
0.049252
0.053489
0.057046
0.039804
0.025499
0.049022
0.042425
0.046493
0.049247
0.030181
0.020749
0.077355
0.079234
0.073402
0.049916
0.030658
0.016605
0.291892
0.286133
0.289816
0.187976
0.060824
0.023410
0.853917
0.589347
0.246353
0.122838
0.058006
0.029359
0.339715
0.219827
0.103796
0.076865
0.040830
0.025525
0.070745
0.073370
0.065148
0.049149
0.036947
0.031358
0.053528
0.079984
0.065306
0.048109
0.040100
0.036186
0.057717
0.084673
0.075046
0.055605
0.044185
0.038838
0.071772
0.089529
0.080916
0.061912
0.048096
0.040713
0.070877
0.089504
0.083834
0.065886
0.051065
0.042511
0.075449
0.089207
0.084434
0.067924
0.052984
0.043952
0.087177
0.083669
0.068386
0.053737
0.044637
0.074859
0.085143
0.081799
0.067570
0.053288
0.044257
0.072920
0.082126
0.079057
0.065589
0.051649
0.042682
0.072061
0.078884
0.075429
0.062581
0.048912
0.039971
0.069752
0.074950
0.071095
0.058715
0.045345
0.036436
0.068810
0.071235
0.066313
0.054420
0.041495
0.032779
0.068829
0.068366
0.062002
0.050499
0.038376
0.030266
0.072922
0.068585
0.059596
0.048267
0.037374
0.030405
0.081473
0.073478
0.061052
0.049184
0.039399
0.033792
0.092883
0.082531
0.066661
0.052892
0.043792
0.038970
0.102954
0.091665
0.073195
0.057831
0.048626
0.044154
0.101615
0.094065
0.077327
0.061348
0.052396
0.048233
0.096690
0.093129
0.079008
0.063199
0.054977
0.051026
0.091303
0.091062
0.078882
0.064404
0.056605
0.053023
0.084419
0.088097
0.078681
0.064923
0.057918
0.054586
0.079648
0.085247
0.077820
0.065217
0.058818
0.055876
0.076761
0.082268
0.075886
0.064908
0.059216
0.056691
0.072633
0.078068
0.073058
0.063657
0.058918
0.056827
0.067659
0.072842
0.069190
0.061645
0.057811
0.056221
0.061773
0.066975
0.064801
0.058979
0.056088
0.054945
0.055987
0.061250
0.060332
0.056070
0.053967
0.053222
0.050728
0.056150
0.056314
0.053220
0.051747
0.051298
0.046669
0.052179
0.053033
0.050728
0.049653
0.049404
0.043966
0.049466
0.050656
0.048739
0.047856
0.047708
0.042447
0.047887
0.049163
0.047291
0.046434
0.046306
0.041905
0.047228
0.048351
0.046347
0.045393
0.045239
0.041718
0.047061
0.048073
0.045797
0.044714
0.044505
0.041918
0.047305
0.048136
0.045593
0.044351
0.044088
0.042235
0.047816
0.048535
0.045675
0.044284
0.043961
0.042898
0.048688
0.049249
0.046043
0.044482
0.044096
0.043944
0.049989
0.050316
0.046681
0.044921
0.044457
0.045483
0.051779
0.051760
0.047568
0.045560
0.044995
0.047578
0.054111
0.053569
0.048670
0.046342
0.045643
0.050204
0.056961
0.055711
0.049911
0.047186
0.046311
0.053313
0.060265
0.058085
0.051198
0.047982
0.046892
0.056715
0.063856
0.060552
0.052379
0.048611
0.047258
0.060270
0.067510
0.062869
0.053321
0.048933
0.047298
0.063669
0.070922
0.064840
0.053832
0.048868
0.046911
0.067094
0.073869
0.066125
0.053913
0.048327
0.046069
0.070347
0.076177
0.066878
0.053446
0.047363
0.044778
0.074920
0.078282
0.066778
0.052587
0.046049
0.043052
0.080773
0.080045
0.065918
0.051608
0.044336
0.040866
0.084265
0.080205
0.064829
0.050166
0.042301
0.037977
0.086008
0.078685
0.062240
0.048726
0.039628
0.034111
0.084244
0.074337
0.058439
0.046964
0.036601
0.028902
0.073414
0.064964
0.053984
0.045630
0.033615
0.022468
0.061208
0.055804
0.051016
0.046148
0.031892
0.015565
0.047908
0.047488
0.049985
0.048405
0.032433
0.010813
0.036784
0.041860
0.050885
0.052015
0.035121
0.013324
0.025222
0.036413
0.051492
0.056445
0.039469
0.021270
0.037267
0.043234
0.056579
0.062721
0.045156
0.030081
0.088775
0.090793
0.087858
0.079320
0.052359
0.035212
0.214366
0.210126
0.198279
0.132451
0.060322
0.031887
0.336306
0.325949
0.325857
0.225641
0.068005
0.026889
0.752446
0.570028
0.266861
0.122320
0.059970
0.034615
0.478112
0.325876
0.161456
0.095571
0.059316
0.035628
0.249307
0.186755
0.120430
0.080893
0.057026
0.045430
0.090702
0.115150
0.097160
0.070378
0.055857
0.048683
0.050461
0.095349
0.086393
0.065576
0.052814
0.046392
0.040550
0.085091
0.081878
0.062820
0.048860
0.041242
0.044784
0.080491
0.078951
0.060850
0.045123
0.035481
0.047107
0.077107
0.076538
0.059129
0.042025
0.030390
0.051138
0.074760
0.074205
0.057526
0.039636
0.026437
0.052813
0.072630
0.071983
0.055984
0.037858
0.023726
0.055974
0.071199
0.069902
0.054589
0.036677
0.022354
0.058615
0.070337
0.068218
0.053533
0.036307
0.022675
0.063898
0.070972
0.067266
0.053224
0.037176
0.025130
0.071084
0.073652
0.067768
0.054183
0.039751
0.029805
0.082815
0.079852
0.070439
0.056959
0.044197
0.036252
0.098462
0.090066
0.076105
0.061725
0.050080
0.043598
0.117545
0.104185
0.084453
0.067654
0.056384
0.050522
0.136470
0.119530
0.093823
0.073664
0.061428
0.055753
0.146209
0.130025
0.101630
0.077099
0.064014
0.058190
0.138089
0.125208
0.098718
0.075116
0.063129
0.057600
0.121531
0.114011
0.091290
0.070408
0.059708
0.054917
0.099298
0.100227
0.084170
0.064560
0.055805
0.051478
0.084834
0.089700
0.077376
0.060224
0.052383
0.048719
0.076451
0.082540
0.072188
0.057259
0.050380
0.047170
0.069919
0.076765