# vtk DataFile Version 2.0
test
ASCII
DATASET UNSTRUCTURED_GRID
POINTS 41454 float
0.750000 -0.500000 0.050000
0.750000 0.480000 0.050000
0.761737 -0.488683 0.050000
0.765469 -0.474781 0.050000
0.768731 -0.458438 0.050000
0.770502 -0.442588 0.050000
0.772018 -0.426230 0.050000
0.773052 -0.410003 0.050000
0.773872 -0.393578 0.050000
0.774414 -0.377186 0.050000
0.774749 -0.360689 0.050000
0.774852 -0.344202 0.050000
0.774737 -0.327648 0.050000
0.774392 -0.311117 0.050000
0.773804 -0.294547 0.050000
0.772969 -0.278046 0.050000
0.771879 -0.261565 0.050000
0.770552 -0.245242 0.050000
0.769043 -0.229050 0.050000
0.767420 -0.213095 0.050000
0.765835 -0.197358 0.050000
0.764353 -0.181776 0.050000
0.763108 -0.166373 0.050000
0.762097 -0.150936 0.050000
0.761322 -0.135552 0.050000
0.760747 -0.120044 0.050000
0.760308 -0.104496 0.050000
0.759971 -0.088838 0.050000
0.759688 -0.073126 0.050000
0.759440 -0.057343 0.050000
0.759203 -0.041525 0.050000
0.758974 -0.025670 0.050000
0.758742 -0.009796 0.050000
0.758507 0.006095 0.050000
0.758266 0.021993 0.050000
0.758019 0.037897 0.050000
0.757767 0.053801 0.050000
0.757507 0.069704 0.050000
0.757243 0.085598 0.050000
0.756973 0.101485 0.050000
0.756701 0.117353 0.050000
0.756427 0.133204 0.050000
0.756158 0.149022 0.050000
0.755899 0.164807 0.050000
0.755664 0.180539 0.050000
0.755466 0.196218 0.050000
0.755333 0.211817 0.050000
0.755292 0.227347 0.050000
0.755387 0.242779 0.050000
0.755654 0.258165 0.050000
0.756148 0.273466 0.050000
0.756889 0.288834 0.050000
0.757854 0.304234 0.050000
0.759014 0.319850 0.050000
0.760193 0.335702 0.050000
0.761273 0.351809 0.050000
0.762072 0.368196 0.050000
0.762450 0.384719 0.050000
0.762362 0.401338 0.050000
0.761635 0.417964 0.050000
0.760389 0.434357 0.050000
0.758094 0.450676 0.050000
0.755697 0.465772 0.050000
-0.750000 0.480000 0.050000
0.733871 0.480000 0.050000
0.717742 0.480000 0.050000
0.701613 0.480000 0.050000
0.685484 0.480000 0.050000
0.669355 0.480000 0.050000
0.653226 0.480000 0.050000
0.637097 0.480000 0.050000
0.620968 0.480000 0.050000
0.604839 0.480000 0.050000
0.588710 0.480000 0.050000
0.572581 0.480000 0.050000
0.556452 0.480000 0.050000
0.540323 0.480000 0.050000
0.524194 0.480000 0.050000
0.508065 0.480000 0.050000
0.491935 0.480000 0.050000
0.475807 0.480000 0.050000
0.459677 0.480000 0.050000
0.443548 0.480000 0.050000
0.427419 0.480000 0.050000
0.411290 0.480000 0.050000
0.395161 0.480000 0.050000
0.379032 0.480000 0.050000
0.362903 0.480000 0.050000
0.346774 0.480000 0.050000
0.330645 0.480000 0.050000
0.314516 0.480000 0.050000
0.298387 0.480000 0.050000
0.282258 0.480000 0.050000
0.266129 0.480000 0.050000
0.250000 0.480000 0.050000
0.233871 0.480000 0.050000
0.217742 0.480000 0.050000
0.201613 0.480000 0.050000
0.185484 0.480000 0.050000
0.169355 0.480000 0.050000
0.153226 0.480000 0.050000
0.137097 0.480000 0.050000
0.120968 0.480000 0.050000
0.104839 0.480000 0.050000
0.088710 0.480000 0.050000
0.072581 0.480000 0.050000
0.056452 0.480000 0.050000
0.040323 0.480000 0.050000
0.024194 0.480000 0.050000
0.008065 0.480000 0.050000
-0.008065 0.480000 0.050000
-0.024194 0.480000 0.050000
-0.040323 0.480000 0.050000
-0.056452 0.480000 0.050000
-0.072581 0.480000 0.050000
-0.088710 0.480000 0.050000
-0.104839 0.480000 0.050000
-0.120968 0.480000 0.050000
-0.137097 0.480000 0.050000
-0.153226 0.480000 0.050000
-0.169355 0.480000 0.050000
-0.185484 0.480000 0.050000
-0.201613 0.480000 0.050000
-0.217742 0.480000 0.050000
-0.233871 0.480000 0.050000
-0.250000 0.480000 0.050000
-0.266129 0.480000 0.050000
-0.282258 0.480000 0.050000
-0.298387 0.480000 0.050000
-0.314516 0.480000 0.050000
-0.330645 0.480000 0.050000
-0.346774 0.480000 0.050000
-0.362903 0.480000 0.050000
-0.379032 0.480000 0.050000
-0.395161 0.480000 0.050000
-0.411290 0.480000 0.050000
-0.427419 0.480000 0.050000
-0.443548 0.480000 0.050000
-0.459677 0.480000 0.050000
-0.475807 0.480000 0.050000
-0.491935 0.480000 0.050000
-0.508065 0.480000 0.050000
-0.524194 0.480000 0.050000
-0.540323 0.480000 0.050000
-0.556452 0.480000 0.050000
-0.572581 0.480000 0.050000
-0.588710 0.480000 0.050000
-0.604839 0.480000 0.050000
-0.620968 0.480000 0.050000
-0.637097 0.480000 0.050000
-0.653226 0.480000 0.050000
-0.669355 0.480000 0.050000
-0.685484 0.480000 0.050000
-0.701613 0.480000 0.050000
-0.717742 0.480000 0.050000
-0.733871 0.480000 0.050000
-0.750000 -0.500000 0.050000
-0.754984 0.465443 0.050000
-0.757190 0.450260 0.050000
-0.759335 0.433855 0.050000
-0.760551 0.417462 0.050000
-0.761297 0.400757 0.050000
-0.761478 0.384165 0.050000
-0.761260 0.367554 0.050000
-0.760672 0.351153 0.050000
-0.759862 0.334898 0.050000
-0.758901 0.318881 0.050000
-0.757949 0.303066 0.050000
-0.757058 0.287383 0.050000
-0.756319 0.271849 0.050000
-0.755739 0.256310 0.050000
-0.755317 0.240821 0.050000
-0.755039 0.225267 0.050000
-0.754867 0.209700 0.050000
-0.754785 0.194065 0.050000
-0.754762 0.178401 0.050000
-0.754786 0.162688 0.050000
-0.754841 0.146953 0.050000
-0.754921 0.131187 0.050000
-0.755019 0.115410 0.050000
-0.755132 0.099613 0.050000
-0.755258 0.083815 0.050000
-0.755394 0.068005 0.050000
-0.755539 0.052200 0.050000
-0.755691 0.036388 0.050000
-0.755847 0.020586 0.050000
-0.756003 0.004787 0.050000
-0.756158 -0.010988 0.050000
-0.756316 -0.026741 0.050000
-0.756482 -0.042447 0.050000
-0.756669 -0.058103 0.050000
-0.756901 -0.073683 0.050000
-0.757200 -0.089194 0.050000
-0.757609 -0.104600 0.050000
-0.758162 -0.119943 0.050000
-0.758914 -0.135171 0.050000
-0.759900 -0.150403 0.050000
-0.761145 -0.165577 0.050000
-0.762669 -0.180871 0.050000
-0.764393 -0.196265 0.050000
-0.766283 -0.211867 0.050000
-0.768195 -0.227718 0.050000
-0.770041 -0.243775 0.050000
-0.771722 -0.260078 0.050000
-0.773170 -0.276505 0.050000
-0.774363 -0.293082 0.050000
-0.775270 -0.309702 0.050000
-0.775908 -0.326380 0.050000
-0.776257 -0.343063 0.050000
-0.776346 -0.359737 0.050000
-0.776140 -0.376411 0.050000
-0.775678 -0.393010 0.050000
-0.774865 -0.409638 0.050000
-0.773783 -0.426074 0.050000
-0.772122 -0.442650 0.050000
-0.770153 -0.458687 0.050000
-0.766487 -0.475216 0.050000
-0.762432 -0.489126 0.050000
-0.733871 -0.500000 0.050000
-0.717742 -0.500000 0.050000
-0.701613 -0.500000 0.050000
-0.685484 -0.500000 0.050000
-0.669355 -0.500000 0.050000
-0.653226 -0.500000 0.050000
-0.637097 -0.500000 0.050000
-0.620968 -0.500000 0.050000
-0.604839 -0.500000 0.050000
-0.588710 -0.500000 0.050000
-0.572581 -0.500000 0.050000
-0.556452 -0.500000 0.050000
-0.540323 -0.500000 0.050000
-0.524194 -0.500000 0.050000
-0.508065 -0.500000 0.050000
-0.491935 -0.500000 0.050000
-0.475807 -0.500000 0.050000
-0.459677 -0.500000 0.050000
-0.443548 -0.500000 0.050000
-0.427419 -0.500000 0.050000
-0.411290 -0.500000 0.050000
-0.395161 -0.500000 0.050000
-0.379032 -0.500000 0.050000
-0.362903 -0.500000 0.050000
-0.346774 -0.500000 0.050000
-0.330645 -0.500000 0.050000
-0.314516 -0.500000 0.050000
-0.298387 -0.500000 0.050000
-0.282258 -0.500000 0.050000
-0.266129 -0.500000 0.050000
-0.250000 -0.500000 0.050000
-0.233871 -0.500000 0.050000
-0.217742 -0.500000 0.050000
-0.201613 -0.500000 0.050000
-0.185484 -0.500000 0.050000
-0.169355 -0.500000 0.050000
-0.153226 -0.500000 0.050000
-0.137097 -0.500000 0.050000
-0.120968 -0.500000 0.050000
-0.104839 -0.500000 0.050000
-0.088710 -0.500000 0.050000
-0.072581 -0.500000 0.050000
-0.056452 -0.500000 0.050000
-0.040323 -0.500000 0.050000
-0.024194 -0.500000 0.050000
-0.008065 -0.500000 0.050000
0.008065 -0.500000 0.050000
0.024194 -0.500000 0.050000
0.040323 -0.500000 0.050000
0.056452 -0.500000 0.050000
0.072581 -0.500000 0.050000
0.088710 -0.500000 0.050000
0.104839 -0.500000 0.050000
0.120968 -0.500000 0.050000
0.137097 -0.500000 0.050000
0.153226 -0.500000 0.050000
0.169355 -0.500000 0.050000
0.185484 -0.500000 0.050000
0.201613 -0.500000 0.050000
0.217742 -0.500000 0.050000
0.233871 -0.500000 0.050000
0.250000 -0.500000 0.050000
0.266129 -0.500000 0.050000
0.282258 -0.500000 0.050000
0.298387 -0.500000 0.050000
0.314516 -0.500000 0.050000
0.330645 -0.500000 0.050000
0.346774 -0.500000 0.050000
0.362903 -0.500000 0.050000
0.379032 -0.500000 0.050000
0.395161 -0.500000 0.050000
0.411290 -0.500000 0.050000
0.427419 -0.500000 0.050000
0.443548 -0.500000 0.050000
0.459677 -0.500000 0.050000
0.475807 -0.500000 0.050000
0.491935 -0.500000 0.050000
0.508065 -0.500000 0.050000
0.524194 -0.500000 0.050000
0.540323 -0.500000 0.050000
0.556452 -0.500000 0.050000
0.572581 -0.500000 0.050000
0.588710 -0.500000 0.050000
0.604839 -0.500000 0.050000
0.620968 -0.500000 0.050000
0.637097 -0.500000 0.050000
0.653226 -0.500000 0.050000
0.669355 -0.500000 0.050000
0.685484 -0.500000 0.050000
0.701613 -0.500000 0.050000
0.717742 -0.500000 0.050000
0.733871 -0.500000 0.050000
0.742773 -0.483382 0.050000
0.749347 -0.470590 0.050000
0.752234 -0.456263 0.050000
0.754445 -0.440678 0.050000
0.755905 -0.425000 0.050000
0.757082 -0.408962 0.050000
0.757908 -0.392900 0.050000
0.758514 -0.376682 0.050000
0.758870 -0.360453 0.050000
0.759009 -0.344138 0.050000
0.758916 -0.327828 0.050000
0.758586 -0.311465 0.050000
0.758007 -0.295139 0.050000
0.757155 -0.278788 0.050000
0.756020 -0.262532 0.050000
0.754605 -0.246310 0.050000
0.752939 -0.230265 0.050000
0.751148 -0.214345 0.050000
0.749339 -0.198595 0.050000
0.747728 -0.183004 0.050000
0.746374 -0.167411 0.050000
0.745345 -0.151916 0.050000
0.744606 -0.136308 0.050000
0.744082 -0.120709 0.050000
0.743718 -0.105011 0.050000
0.743439 -0.089284 0.050000
0.743213 -0.073494 0.050000
0.743004 -0.057677 0.050000
0.742801 -0.041824 0.050000
0.742592 -0.025954 0.050000
0.742377 -0.010066 0.050000
0.742151 0.005830 0.050000
0.741917 0.021734 0.050000
0.741672 0.037640 0.050000
0.741418 0.053548 0.050000
0.741155 0.069452 0.050000
0.740882 0.085352 0.050000
0.740602 0.101242 0.050000
0.740313 0.117123 0.050000
0.740018 0.132984 0.050000
0.739719 0.148829 0.050000
0.739423 0.164641 0.050000
0.739138 0.180426 0.050000
0.738883 0.196161 0.050000
[...]
CELL_DATA 34596
SCALARS Mises_Stress_Abs(MPa) float 1
LOOKUP_TABLE default
23.280800
24.790800
17.264200
20.867700
22.854100
21.097800
23.303100
22.405600
15.656400
23.852200
6.176830
20.535000
11.416100
2.810780
0.920159
0.446176
0.374298
0.161631
8.453550
0.091336
1.004080
4.124890
12.614600
0.728302
0.569258
0.578427
0.295974
0.150570
12.551300
7.172230
11.124700
3.551490
4.977140
5.921740
8.941740
10.271800
8.100750
5.496720
8.936180
6.001360
9.385940
11.030200
12.519900
13.812300
6.363560
9.237270
0.596494
0.798975
0.550075
0.574893
0.291715
10.868000
12.615600
10.723700
8.324710
6.658880
11.395500
13.516100
11.554400
12.312400
12.319600
11.031900
11.775000
3.815540
10.760000
12.211400
3.852330
9.700120
8.012170
0.441042
0.780839
0.815306
0.734943
0.606880
10.933500
7.706940
13.050100
25.625800
8.284740
8.077230
27.908200
26.752500
8.679780
12.133400
30.349300
9.420050
7.818620
28.074800
28.742500
14.433500
28.686500
27.761300
0.753494
1.000490
0.763316
0.930935
0.814042
5.833280
6.829630
10.471800
9.083960
13.504200
16.169200
7.383590
6.860360
10.971800
6.310560
0.999792
1.196130
0.916522
0.979805
6.447880
5.086970
4.694290
2.050280
2.655870
8.927370
5.586740
7.559900
0.876009
9.478490
8.292720
11.251400
7.265130
10.332500
6.192430
4.553200
1.318370
1.028020
1.027940
1.236700
1.369700
4.872430
6.229320
7.256420
6.663160
4.226870
6.771200
5.956870
5.831320
4.975580
5.865190
1.292020
1.642890
1.426480
1.228290
1.236930
5.132040
5.538380
3.929160
6.051840
5.389910
3.153480
4.474550
5.965400
7.907120
5.133690
1.404040
1.984910
1.256060
1.576120
1.723480
3.110130
4.811780
5.062690
5.622040
3.987890
1.417650
1.767690
2.035920
2.107800
1.567630
2.001510
5.341180
5.929820
5.174980
2.096630
3.856420
4.305890
3.805200
5.931240
2.891990
2.141930
1.963960
1.873460
2.744240
1.509800
4.179700
5.385710
6.023690
5.072400
3.619880
4.018770
3.197220
3.628390
2.684050
4.293280
2.116360
2.355310
2.563890
1.657030
5.348310
2.606470
4.662140
5.769070
5.412850
6.252890
3.231930
2.951830
4.147440
2.456950
3.093360
1.733070
2.527470
2.659060
2.973800
5.966840
3.633320
7.281610
6.520520
8.544860
5.507930
2.621280
2.940820
3.009900
2.298430
2.563490
2.957820
3.580720
3.144040
3.021640
2.964180
7.698300
7.809990
6.098300
6.965450
2.628160
2.138800
9.642610
2.381830
2.016290
2.406090
6.287810
3.958430
2.915890
5.513130
4.248730
12.365700
7.111930
6.906560
11.572700
9.947500
1.955860
1.863610
1.762880
1.809680
2.150240
9.665960
4.391810
4.385300
4.587800
7.644930
12.551200
5.057880
8.372070
15.212300
8.778000
1.451800
1.765360
1.561750
1.447030
1.678440
10.634300
20.724200
6.201680
18.635000
21.104200
5.127470
6.039460
18.708300
19.046500
8.208680
7.234680
9.042190
22.136100
10.603300
21.076800
8.234470
11.955400
1.388660
1.181900
1.376940
1.418230
0.847978
6.002480
12.184800
10.703100
4.853150
6.694790
8.071320
10.240100
11.865200
11.634400
4.644360
9.181220
7.563390
7.870770
10.606400
11.010900
9.397800
10.276500
1.163300
0.618779
0.916825
1.082740
1.083930
5.879880
8.681970
5.689750
7.081550
5.002790
1.538800
8.519530
11.405200
2.344820
7.093830
6.840970
2.828590
11.692600
1.549350
4.991210
9.266010
2.871420
0.285279
0.666881
0.903583
0.855865
0.803697
7.357350
4.712860
6.508300
6.579470
7.721520
7.439770
8.775860
7.812400
7.699420
7.707850
3.529380
7.724520
8.854760
10.577800
10.024200
7.915130
9.754240
0.205301
0.796250
0.430465
0.560464
0.590023
2.617980
16.296100
4.906470
15.867500
12.239500
10.199300
6.938920
14.070600
17.190300
15.597100
17.342100
3.476670
13.404000
6.607270
10.841200
1.225440
15.614300
0.610063
0.438459
0.271476
0.651156
0.192634
0.012282
2.952070
4.962060
1.437800
1.856720
4.147970
2.898460
2.542960
1.409020
2.396920
1.375690
1.699030
1.032340
1.049220
2.030500
1.575130
1.020040
1.472640
1.048780
1.194730
1.169520
4.153980
4.473650
3.135240
3.975430
3.316280
3.373190
2.906390
3.473040
4.243310
2.345560
1.171480
2.833050
4.140980
1.587220
0.839314
1.090460
3.221580
2.216240
3.846920
3.678990
4.005990
1.798550
1.888520
1.132730
1.808600
1.054770
1.791980
1.349340
1.801360
1.663030
2.224960
2.404370
2.087110
0.588350
1.424660
0.909395
0.854054
1.460470
1.214710
1.155920
1.310930
0.829552
1.158860
2.004240
1.145810
1.313200
1.352450
1.481440
1.336810
2.297190
1.679800
1.592600
2.070950
1.665150
2.007340
1.933830
1.309030
0.630905
3.222490
2.476900
2.730160
2.757210
2.142760
2.824690
2.833860
3.075460
1.337950
3.446860
2.393850
2.936990
3.218930
1.581300
3.045960
2.361670
3.057680
2.349470
2.891030
2.574530
2.698280
1.993790
3.173630
2.693720
2.982740
2.441120
2.902680
2.367560
2.146150
0.865319
1.714290
2.350050
5.850650
5.952060
2.590520
3.558370
2.806750
4.371220
3.657360
5.007540
7.078870
6.640380
6.951680
5.153470
5.929490
5.029760
4.136510
4.433090
4.801280
6.798880
2.228150
2.562020
2.262340
3.055080
1.444700
1.401410
2.956210
3.818920
4.367110
4.979990
5.595880
1.573990
1.813900
0.000953
0.000517
4.256180
3.510260
3.029720
3.337360
3.244090
4.456440
1.280080
0.001665
0.003183
1.434720
4.223020
2.047680
0.000901
4.692070
0.001667
0.664107
0.723561
2.398710
1.485720
1.188620
0.002836
0.723223
2.404660
4.598420
1.959960
0.005753
2.388400
4.725920
1.000750
0.000913
1.639660
0.001412
0.683538
1.637680
0.432919
0.212021
4.504270
0.002488
2.219940
2.657950
0.005177
4.972370
2.267940
0.000920
0.618231
1.516880
1.589570
0.001260
0.607276
0.845935
0.002478
0.212779
2.620210
4.585680
0.005048
2.132200
0.000889
0.001279
4.882450
2.378420
1.878880
2.480790
1.036000
2.974110
3.280420
0.000920
0.004963
4.411760
0.002419
2.153410
0.679312
2.389030
2.283490
4.792220
1.819800
0.001541
0.000922
0.000615
4.332590
6.084210
5.713320
0.004906
4.041680
0.002406
2.205680
2.268650
0.766978
2.338500
4.499280
0.002417
0.000492
0.001480
0.002274
5.019990
6.325440
4.269840
0.004886
4.559810
7.488780
1.294140
2.062880
0.002396
1.669640
3.767230
4.097600
2.233730
3.008100
0.002311
0.001655
0.000683
2.730790
0.002939
0.004874
2.853180
5.451720
7.063980
0.000766
0.002397
2.972060
2.226300
1.425060
1.514940
3.585800
2.277570
6.884280
0.001264
0.002861
0.672750
2.961720
10.961600
7.495050
10.065200
0.004810
5.292030
2.701400
2.931670
0.002354
1.926400
0.950854
1.970950
2.001060
2.054760
3.001710
0.001352
6.892710
4.976900
4.935930
2.651890
4.654720
1.506670
2.494040
0.448069
0.004832
0.000922
2.435440
0.002288
0.922344
2.213880
3.734890
5.081180
3.532600
2.474000
3.564580
5.016190
5.029710
3.937590
1.755280
2.113050
0.873291
1.797070
0.467246
1.571680
1.125310
0.383247
2.071960
1.995890
0.001164
0.002471
2.549770
3.286330
4.983800
1.682870
3.406890
2.906080
4.906370
3.610860
3.595800
5.269250
3.982730
5.338510
5.832330
2.965860
0.663045
5.813610
5.433340
3.589110
5.388850
1.793050
5.546560
6.895550
3.020510
2.016490
6.139340
2.931810
5.340910
5.420140
6.437730
8.518930
2.059630
8.940270
3.888850
2.837400
2.709490
3.428290
2.169720
2.439340
0.556064
3.015760
2.584200
3.008500
2.552440
1.832530
1.970040
1.897330
2.787700
3.035960
3.878080
3.253930
2.613510
2.568010
2.703330
1.354730
1.574640
0.003220
0.795796
2.736850
2.281560
1.626670
6.381320
7.344870
7.951080
4.792780
7.091550
4.330180
5.120710
0.822079
3.059450
1.474290
3.338880
3.893940
1.835660
1.370880
2.364540
2.528860
2.342950
1.078900
1.376880
2.481130
1.014260
2.987590
0.907037
1.817710
3.201370
1.850590
1.747040
3.548380
5.403430
1.657780
3.450050
2.945800
2.378200
2.069920
3.626380
5.414650
5.180390
2.194860
2.041090
3.044190
2.564380
3.146200
2.723060
3.856730
2.745610
2.775970
1.922320
2.989810
2.680530
1.378080
3.131850
1.717960
3.326010
2.939070
3.178120
1.604470
1.612530
0.786614
1.460940
2.229570
1.421380
3.799820
1.301220
3.124360
3.026830
0.799354
2.792950
1.928030
1.291440
2.327830
1.636590
1.016750
1.273840
2.337580
1.901680
1.107490
1.243250
3.000730
1.714400
1.021890
1.697540
1.111330
1.977990
1.084800
1.520800
1.853010
1.154270
1.397670
0.749313
2.219500
1.111360
1.485850
2.146370
2.252910
1.603220
0.824386
1.218650
0.908832
1.306100
1.609200
0.880045
0.892936
1.159330
1.641940
1.323090
1.163210
1.508830
1.112900
1.270470
0.668530
0.980036
1.322590
0.602800
0.394429
1.227450
0.575909
0.574960
0.556469
0.599916
0.250392
0.779276
1.263500
0.756553
0.787566
0.710573
0.539946
0.458555
0.854371
1.486950
0.586286
1.335400
1.507750
1.312590
0.966011
0.327966
0.302585
0.744669
1.031440
0.433809
1.831840
2.512190
5.215340
0.608543
0.673554
0.554879
1.084670
1.415050
2.306300
1.294020
2.835280
2.766230
0.002410
1.868440
0.002180
0.002730
4.449580
5.508830
2.718440
2.999560
3.554070
0.002558
0.002816
1.556730
0.002421
2.488080
2.524470
2.151150
4.706460
3.262520
1.823440
0.002937
1.335320
0.003019
0.002455
2.716670
2.185550
2.122030
3.916230
0.531161
0.640856
0.003556
1.569340
1.078410
0.002494
0.003094
3.258790
1.784000
1.783580
2.363800
0.002541
0.003269
1.072580
0.004139
0.932959
2.566690
1.547810
1.992350
1.587920
0.732067
0.900895
0.002558
0.004814
0.003466
2.155920
1.215640
1.369820
1.581090
0.005481
0.002553
0.003623
1.061050
1.479040
1.339050
1.101610
0.006272
0.003774
0.378655
0.584337
0.002485
0.859936
0.898642
0.909519
1.438820
0.551476
0.928435
0.728769
0.627201
0.332102
0.657231
0.694847
1.472590
7.651550
5.029990
4.278330
9.756110
6.356740
2.849580
0.002751
0.001641
5.070610
2.704140
9.095580
4.425620
5.341090
7.870890
0.001713
3.848670
2.544940
0.002474
6.089950
4.003650
4.535600
7.387350
3.337740
2.126180
3.678020
0.001884
0.002686
0.002422
5.800830
4.305660
6.569370
3.378100
2.465620
3.824850
7.326690
7.489620
7.748130
5.047470
7.699750
7.908330
6.312880
6.718260
8.105310
8.491610
9.509200
8.482930
9.570170
9.128720
8.835590
10.021200
9.130070
9.369930
8.175210
8.800140
1.397690
8.776140
9.319620
5.445540
3.501090
2.136500
9.757630
10.170300
7.280120
4.634770
4.859720
3.756900
4.042860
4.279040
4.393750
4.347900
4.172810
4.096590
4.017020
3.799070
4.338240
5.028130
4.748850
5.400320
5.016100
5.077480
4.509800
4.561940
4.906180
4.688470
4.870770
5.056130
5.711340
6.694840
2.369530
5.846170
6.118470
4.539440
6.289410
5.113930
10.733100
3.992450
10.387300
9.594020
10.650800
5.417620
4.899160
0.644981
0.782091
0.872258
0.703603
1.974350
0.970325
1.388460
0.534383
0.432220
3.252260
0.741467
0.552205
0.620364
0.838759
0.784078
0.469948
0.695905
0.421634
0.887123
1.517450
0.886232
2.037070
6.433450
3.958880
5.154990
6.760820
7.265350
7.562670
3.732480
5.635570
2.619590
1.469850
3.609280
3.865890
3.454000
3.255110
3.521170
3.805690
3.634010
3.780480
3.699390
3.771010
3.829970
3.937860
4.220720
3.771840
2.829220
4.044280
4.062590
4.204760
4.247420
1.492040
3.906770
8.557710
7.779320
7.707510
4.711350
7.192380
6.645850
7.027930
5.410840
6.731850
3.690940
2.662420
7.083600
7.687010
7.499640
7.654820
7.892260
7.331570
8.104660
7.387550
7.880580
8.061410
8.343320
8.576360
8.327060
8.197010
8.289480
9.063700
4.831030
8.935900
3.884210
8.852970
7.449010
7.591710
9.965950
7.841990
12.149800
11.010200
11.494600
10.391400
11.800100
11.896800
12.233200
12.500200
11.444200
11.060300
12.307600
12.848200
12.665900
14.298800
14.392900
13.160600
13.414000
12.637100
7.145160
5.382300
12.500000
7.799870
11.027600
5.356210
8.177510
0.001275
4.066760
0.002118
5.612370
12.220400
3.846300
7.352940
11.521000
0.001935
6.887780
0.003366
4.956390
6.260830
4.661400
10.516400
11.438300
7.343010
3.256460
4.904850
0.001665
0.002895
0.002063
0.003169
0.002781
0.002574
0.004067
0.003753
0.002709
0.007670
0.005086
0.100853
0.345013
0.203428
0.006864
0.209907
2.981730
3.988790
2.551930
1.782120
1.481270
0.890770
0.651056
0.312290
0.168839
0.212045
0.145290
0.045166
0.029703
0.009764
0.007906
0.075658
0.047831
0.023396
0.016128
0.006619
0.004718
0.020815
0.032965
0.016376
0.007768
0.005006
0.004096
0.017541
0.033011
0.022826
0.011996
0.008149
0.006405
0.017045
0.032377
0.026656
0.017212
0.011768
0.009031
0.017152
0.031407
0.028558
0.020406
0.014681
0.011414
0.018498
0.030478
0.029169
0.022317
0.016672
0.013353
0.019045
0.029531
0.029197
0.023279
0.017948
0.014708
0.019875
0.028689
0.028802
0.023623
0.018567
0.015458
0.020191
0.027786
0.028116
0.023430
0.018608
0.015584
0.020346
0.026759
0.027089
0.022755
0.018072
0.015083
0.019921
0.025411
0.025666
0.021563
0.016959
0.013937
0.019000
0.023606
0.023725
0.019831
0.015257
0.012141
0.017186
0.021138
0.021205
0.017544
0.013010
0.009723
0.014717
0.018034
0.018120
0.014852
0.010416
0.006863
0.011877
0.014688
0.014933
0.012245
0.008144
0.004397
0.010959
0.012839
0.012995
0.010964
0.007759
0.005040
0.014570
0.014952
0.014174
0.012365
0.010133
0.008601
0.020490
0.020146
0.018266
0.015899
0.013926
0.012775
0.026825
0.026054
0.023199
0.019992
0.017849
0.016698
0.031797
0.030901
0.027390
0.023587
0.021175
0.019966
0.034302
0.033772
0.030229
0.026070
0.023589
0.022353
0.035038
0.034749
0.031388
0.027368
0.024961
0.023800
0.033783
0.033986
0.031176
0.027532
0.025390
0.024362
0.031396
0.032043
0.029922
0.026833
0.025037
0.024189
0.028512
0.029478
0.028002
0.025553
0.024121
0.023467
0.025399
0.026658
0.025807
0.023929
0.022864
0.022388
0.022534
0.023931
0.023553
0.022205
0.021441
0.021126
0.019951
0.021457
0.021465
0.020521
0.020013
0.019821
0.017858
0.019384
0.019641
0.019010
0.018681
0.018583
0.016226
0.017753
0.018170
0.017731
0.017520
0.017480
0.015087
0.016577
0.017062
0.016719
0.016562
0.016552
0.014369
0.015811
0.016294
0.015967
0.015816
0.015812
0.013961
0.015366
0.015816
0.015446
0.015270
0.015256
0.013793
0.015168
0.015559
0.015121
0.014900
0.014869
0.013751
0.015132
0.015477
0.014954
0.014685
0.014634
0.013834
0.015236
0.015533
0.014924
0.014605
0.014534
0.014020
0.015468
0.015719
0.015017
0.014649
0.014557
0.014339
0.015846
0.016041
0.015230
0.014808
0.014692
0.014835
0.016396
0.016504
0.015563
0.015072
0.014927
0.015522
0.017137
0.017122
0.016006
0.015429
0.015243
0.016454
0.018090
0.017886
0.016551
0.015857
0.015617
0.017607
0.019245
0.018788
0.017164
0.016322
0.016007
0.019020
0.020581
0.019769
0.017801
0.016767
0.016360
0.020565
0.022010
0.020767
0.018374
0.017121
0.016596
0.022210
0.023406
0.021617
0.018786
0.017275
0.016619
0.023591
0.024502
0.022164
0.018872
0.017113
0.016314
0.024460
0.025004
0.022118
0.018480
0.016502
0.015562
0.024390
0.024516
0.021238
0.017463
0.015331
0.014265
0.022707
0.022659
0.019370
0.015737
0.013580
0.012368
0.019809
0.019517
0.016508
0.013521
0.011357
0.009922
0.015502
0.015371
0.013330
0.011364
0.009129
0.007118
0.011255
0.011642
0.011189
0.010459
0.007773
0.004475
0.009950
0.010716
0.011636
0.011536
0.008167
0.003351
0.011499
0.012544
0.014004
0.013839
0.009813
0.004557
0.013961
0.015011
0.016541
0.016141
0.011545
0.006170
0.014780
0.015907
0.017672
0.017634
0.012634
0.007115
0.014078
0.015149
0.017458
0.017957
0.012625
0.007162
0.010570
0.011554
0.014706
0.017063
0.011448
0.006324
0.013204
0.012179
0.013016
0.015750
0.009084
0.005171
0.037357
0.037602
0.034261
0.023090
0.010367
0.003934
0.080079
0.079526
0.084890
0.061746
0.014342
0.006474
0.220756
0.163331
0.050029
0.028818
0.013443
0.007109
0.140144
0.094317
0.042986
0.020803
0.011437
0.005724
0.068707
0.056380
0.033413
0.018132
0.011577
0.008359
0.031627
0.040046
0.029558
0.018285
0.012739
0.010204
0.020767
0.033619
0.028192
0.018987
0.013462
0.010555
0.014292
0.029798
0.027465
0.019513
0.013603
0.010095
0.012442
0.027471
0.026701
0.019678
0.013505
0.009408
0.012117
0.025769
0.025878
0.019568
0.013290
0.008799
0.024434
0.025007
0.019249
0.013000
0.008281
0.012824
0.023332
0.024086
0.018766
0.012604
0.007767
0.013194
0.022331
0.023108
0.018128
0.012092
0.007188
0.013842
0.021431
0.022050
0.017362
0.011494
0.006588
0.014494
0.020606
0.020953
0.016528
0.010928
0.006190
0.016060
0.020144
0.019911
0.015773
0.010613
0.006381
0.018350
0.020280
0.019207
0.015333
0.010817
0.007440
0.021983
0.021581
0.019223
0.015475
0.011732
0.009232
0.026482
0.024065
0.020171
0.016388
0.013225
0.011391
0.030165
0.026960
0.022056
0.017818
0.015024
0.013542
0.033473
0.029757
0.024028
0.019467
0.016775
0.015443
0.033848
0.031192
0.025731
0.020932
0.018257
0.016991
0.033088
0.031665
0.026910
0.022002
0.019430
0.018177
0.032116
0.031608
0.027364
0.022761
0.020248
0.019065
0.030302
0.030832
0.027427
0.023069
0.020775
0.019662
0.028732
0.029673
0.026903
0.023020
0.020953
0.019971
0.027083
0.028135
0.025877
0.022582
0.020800
0.019972
0.024941
0.026163
0.024529
0.021787
0.020342
0.019676
0.022862
0.024052
0.022889
0.020765
0.019627
0.019131
0.020570
0.021848
0.021188
0.019583
0.018753
0.018403
0.018488
0.019785
0.019507
0.018383
0.017800
0.017580
0.016564
0.017940
0.018011
0.017242
0.016860
0.016735
0.015055
0.016468
0.016764
0.016248
0.015997
0.015937
0.013992
0.015416
0.015827
0.015440
0.015255
0.015229
0.013346
0.014755
0.015196
0.014827
0.014656
0.014638
0.013060
0.014423
0.014805
0.014396
0.014196
0.014172
0.012908
0.014266
0.014604
0.014108
0.013869
0.013827
0.012887
0.014245
0.014520
0.013943
0.013654
0.013596
0.012892
0.014302
0.014546
0.013878
0.013546
0.013470
0.012995
0.014464
0.014672
0.013913
0.013534
0.013439
0.013218
0.014757
0.014910
0.014043
0.013610
0.013495
0.013587
0.015201
0.015274
0.014265
0.013766
0.013623
0.014158
0.015826
0.015763
0.014573
0.013987
0.013807
0.014897
0.016628
0.016383
0.014951
0.014253
0.014022
0.015864
0.017615
0.017104
0.015377
0.014533
0.014236
0.016947
0.018739
0.017908
0.015807
0.014791
0.014410
0.018226
0.019974
0.018714
0.016202
0.014977
0.014498
0.019463
0.021197
0.019482
0.016487
0.015049
0.014457
0.020844
0.022370
0.020059
0.016627
0.014960
0.014253
0.022072
0.023300
0.020431
0.016568
0.014693
0.013868
0.023313
0.024004
0.020511
0.016307
0.014260
0.013300
0.025024
0.024547
0.020242
0.015943
0.013667
0.012562
0.026025
0.024554
0.019838
0.015449
0.012987
0.011624
0.026539
0.024069
0.019056
0.015003
0.012190
0.010445
0.025984
0.022766
0.018062
0.014603
0.011362
0.008931
0.022490
0.020084
0.017009
0.014404
0.010595
0.007077
0.018363
0.017142
0.016150
0.014639
0.010152
0.005059
0.012486
0.013952
0.015783
0.015325
0.010331
0.003714
0.007113
0.011943
0.016053
0.016480
0.011256
0.004640
0.007621
0.012788
0.017301
0.018177
0.012792
0.007187
0.018141
0.019244
0.020715
0.020702
0.014779
0.009723
0.037559
0.036422
0.032320
0.026630
0.016819
0.010681
0.067784
0.066075
0.059268
0.040438
0.018371
0.008745
0.082353
0.080820
0.083841
0.067150
0.016953
0.007249
0.187893
0.156773
0.052415
0.030358
0.014324
0.008557
0.125306
0.096080
0.055422
0.026669
0.016543
0.009304
0.091084
0.072586
0.044415
0.027254
0.017925
0.013498
0.054454
0.052424
0.038459
0.025994
0.019159
0.015638
0.032930
0.040706
0.034099
0.024702
0.018819
0.015722
0.023267
0.033965
0.030844
0.023161
0.017528
0.014316
0.016367
0.029377
0.028379
0.021581
0.015780
0.012136
0.012831
0.026281
0.026347
0.020118
0.013979
0.009668
0.010583
0.023996
0.024693
0.018834
0.012370
0.007211
0.009712
0.022356
0.023338
0.017790
0.011117
0.005013
0.009982
0.021235
0.022283
0.017027
0.010367
0.003632
0.011179
0.020660
0.021561
0.016612
0.010268
0.004095
0.013856
0.020826
0.021259
0.016634
0.010908
0.006094
0.017458
0.021910
0.021542
0.017175
0.012240
0.008680
0.022980
0.024371
0.022548
0.018266
0.014074
0.011413
0.029472
0.028090
0.024341
0.019824
0.016092
0.014016
0.036326
0.032686
0.026816
0.021479
0.018005
0.016196
0.042641
0.037127
0.029053
0.022991
0.019400
0.017735
0.044199
0.039162
0.030655
0.023720
0.020116
0.018484
0.043458
0.038992
0.030626
0.023567
0.020115
0.018517
0.039668
0.036798
0.029314
0.022836
0.019579
0.018115
0.033826
0.033424
0.027878
0.021750
0.018956
0.017572
0.030140
0.030681
0.026212
0.020905
0.018378
0.017159
0.027217
0.028348
0.024758
0.020186
0.017980
0.016915
0.024645
0.026135
0.023472
0.019524
0.017660
0.016766
0.022878
0.024164
0.022044
0.018863
0.017297
0.016592
0.020810
0.022102
0.020605
0.018058
0.016842
0.016305
0.018909
0.020076
0.019048
0.017173
0.016260
0.015888
0.016759
0.018020
0.017546
0.016221
0.015600
0.015362
0.014841
0.016183
0.016149
0.015313
0.014910
0.014781
0.013203
0.014685
0.015011
0.014503
0.014256
0.014198
0.012125
0.013679
0.014197
0.013850
0.013682
0.013659
0.011688
0.013205
0.013702
0.013376
0.013208
0.013192
0.011557
0.013037
0.013471
0.013040
0.012841
0.012810