# vtk DataFile Version 2.0
test
ASCII
DATASET UNSTRUCTURED_GRID
POINTS 41454 float
0.750000 -0.500000 0.050000
0.750000 0.400000 0.050000
0.743599 -0.539805 0.050000
0.772097 -0.531295 0.050000
0.799253 -0.520874 0.050000
0.818930 -0.503937 0.050000
0.832931 -0.485072 0.050000
0.843357 -0.465311 0.050000
0.851045 -0.445264 0.050000
0.856747 -0.424954 0.050000
0.860630 -0.404625 0.050000
0.862995 -0.384248 0.050000
0.863868 -0.363981 0.050000
0.863371 -0.343868 0.050000
0.861506 -0.324051 0.050000
0.858356 -0.304669 0.050000
0.853975 -0.285892 0.050000
0.848553 -0.267953 0.050000
0.842316 -0.250994 0.050000
0.835727 -0.235246 0.050000
0.829335 -0.220555 0.050000
0.823456 -0.206597 0.050000
0.818653 -0.193289 0.050000
0.814610 -0.179693 0.050000
0.811529 -0.166419 0.050000
0.809237 -0.152608 0.050000
0.807448 -0.138583 0.050000
0.806015 -0.124194 0.050000
0.804748 -0.109534 0.050000
0.803546 -0.094663 0.050000
0.802339 -0.079639 0.050000
0.801100 -0.064533 0.050000
0.799816 -0.049369 0.050000
0.798485 -0.034190 0.050000
0.797108 -0.019005 0.050000
0.795688 -0.003839 0.050000
0.794230 0.011300 0.050000
0.792737 0.026395 0.050000
0.791218 0.041432 0.050000
0.789677 0.056396 0.050000
0.788130 0.071261 0.050000
0.786591 0.086012 0.050000
0.785094 0.100602 0.050000
0.783672 0.115019 0.050000
0.782393 0.129196 0.050000
0.781339 0.143127 0.050000
0.780612 0.156766 0.050000
0.780393 0.170086 0.050000
0.780756 0.183239 0.050000
0.781942 0.195994 0.050000
0.784038 0.208915 0.050000
0.786967 0.221820 0.050000
0.790735 0.235073 0.050000
0.795211 0.249041 0.050000
0.800146 0.264014 0.050000
0.804557 0.280638 0.050000
0.807861 0.298454 0.050000
0.808930 0.317581 0.050000
0.808087 0.336821 0.050000
0.803395 0.356595 0.050000
0.797265 0.374901 0.050000
0.783250 0.391508 0.050000
0.774330 0.406020 0.050000
-0.750000 0.400000 0.050000
0.733871 0.400000 0.050000
0.717742 0.400000 0.050000
0.701613 0.400000 0.050000
0.685484 0.400000 0.050000
0.669355 0.400000 0.050000
0.653226 0.400000 0.050000
0.637097 0.400000 0.050000
0.620968 0.400000 0.050000
0.604839 0.400000 0.050000
0.588710 0.400000 0.050000
0.572581 0.400000 0.050000
0.556452 0.400000 0.050000
0.540323 0.400000 0.050000
0.524194 0.400000 0.050000
0.508065 0.400000 0.050000
0.491935 0.400000 0.050000
0.475807 0.400000 0.050000
0.459677 0.400000 0.050000
0.443548 0.400000 0.050000
0.427419 0.400000 0.050000
0.411290 0.400000 0.050000
0.395161 0.400000 0.050000
0.379032 0.400000 0.050000
0.362903 0.400000 0.050000
0.346774 0.400000 0.050000
0.330645 0.400000 0.050000
0.314516 0.400000 0.050000
0.298387 0.400000 0.050000
0.282258 0.400000 0.050000
0.266129 0.400000 0.050000
0.250000 0.400000 0.050000
0.233871 0.400000 0.050000
0.217742 0.400000 0.050000
0.201613 0.400000 0.050000
0.185484 0.400000 0.050000
0.169355 0.400000 0.050000
0.153226 0.400000 0.050000
0.137097 0.400000 0.050000
0.120968 0.400000 0.050000
0.104839 0.400000 0.050000
0.088710 0.400000 0.050000
0.072581 0.400000 0.050000
0.056452 0.400000 0.050000
0.040323 0.400000 0.050000
0.024194 0.400000 0.050000
0.008065 0.400000 0.050000
-0.008065 0.400000 0.050000
-0.024194 0.400000 0.050000
-0.040323 0.400000 0.050000
-0.056452 0.400000 0.050000
-0.072581 0.400000 0.050000
-0.088710 0.400000 0.050000
-0.104839 0.400000 0.050000
-0.120968 0.400000 0.050000
-0.137097 0.400000 0.050000
-0.153226 0.400000 0.050000
-0.169355 0.400000 0.050000
-0.185484 0.400000 0.050000
-0.201613 0.400000 0.050000
-0.217742 0.400000 0.050000
-0.233871 0.400000 0.050000
-0.250000 0.400000 0.050000
-0.266129 0.400000 0.050000
-0.282258 0.400000 0.050000
-0.298387 0.400000 0.050000
-0.314516 0.400000 0.050000
-0.330645 0.400000 0.050000
-0.346774 0.400000 0.050000
-0.362903 0.400000 0.050000
-0.379032 0.400000 0.050000
-0.395161 0.400000 0.050000
-0.411290 0.400000 0.050000
-0.427419 0.400000 0.050000
-0.443548 0.400000 0.050000
-0.459677 0.400000 0.050000
-0.475807 0.400000 0.050000
-0.491935 0.400000 0.050000
-0.508065 0.400000 0.050000
-0.524194 0.400000 0.050000
-0.540323 0.400000 0.050000
-0.556452 0.400000 0.050000
-0.572581 0.400000 0.050000
-0.588710 0.400000 0.050000
-0.604839 0.400000 0.050000
-0.620968 0.400000 0.050000
-0.637097 0.400000 0.050000
-0.653226 0.400000 0.050000
-0.669355 0.400000 0.050000
-0.685484 0.400000 0.050000
-0.701613 0.400000 0.050000
-0.717742 0.400000 0.050000
-0.733871 0.400000 0.050000
-0.750000 -0.500000 0.050000
-0.773313 0.401950 0.050000
-0.781947 0.387942 0.050000
-0.794701 0.371055 0.050000
-0.800748 0.352859 0.050000
-0.805391 0.333186 0.050000
-0.806605 0.314008 0.050000
-0.806076 0.294800 0.050000
-0.803571 0.276820 0.050000
-0.800026 0.259616 0.050000
-0.795836 0.243896 0.050000
-0.791750 0.228989 0.050000
-0.787899 0.214857 0.050000
-0.784637 0.201234 0.050000
-0.781971 0.187781 0.050000
-0.779937 0.174440 0.050000
-0.778520 0.161064 0.050000
-0.777639 0.147546 0.050000
-0.777182 0.133867 0.050000
-0.777062 0.120006 0.050000
-0.777188 0.105975 0.050000
-0.777499 0.091794 0.050000
-0.777942 0.077483 0.050000
-0.778485 0.063076 0.050000
-0.779100 0.048581 0.050000
-0.779776 0.034039 0.050000
-0.780501 0.019441 0.050000
-0.781266 0.004830 0.050000
-0.782063 -0.009814 0.050000
-0.782877 -0.024446 0.050000
-0.783702 -0.039070 0.050000
-0.784524 -0.053642 0.050000
-0.785350 -0.068124 0.050000
-0.786200 -0.082471 0.050000
-0.787126 -0.096611 0.050000
-0.788209 -0.110502 0.050000
-0.789566 -0.124083 0.050000
-0.791349 -0.137327 0.050000
-0.793732 -0.150239 0.050000
-0.796924 -0.162806 0.050000
-0.801012 -0.175368 0.050000
-0.806005 -0.187579 0.050000
-0.812136 -0.200242 0.050000
-0.818996 -0.213244 0.050000
-0.826691 -0.226997 0.050000
-0.834705 -0.241986 0.050000
-0.842507 -0.258230 0.050000
-0.849684 -0.275771 0.050000
-0.855871 -0.294363 0.050000
-0.860837 -0.313919 0.050000
-0.864397 -0.334170 0.050000
-0.866417 -0.355016 0.050000
-0.866792 -0.376212 0.050000
-0.865407 -0.397681 0.050000
-0.862108 -0.419206 0.050000
-0.856747 -0.440700 0.050000
-0.848832 -0.461913 0.050000
-0.838196 -0.482645 0.050000
-0.823066 -0.502174 0.050000
-0.803041 -0.519840 0.050000
-0.774941 -0.529641 0.050000
-0.746616 -0.540402 0.050000
-0.733871 -0.500000 0.050000
-0.717742 -0.500000 0.050000
-0.701613 -0.500000 0.050000
-0.685484 -0.500000 0.050000
-0.669355 -0.500000 0.050000
-0.653226 -0.500000 0.050000
-0.637097 -0.500000 0.050000
-0.620968 -0.500000 0.050000
-0.604839 -0.500000 0.050000
-0.588710 -0.500000 0.050000
-0.572581 -0.500000 0.050000
-0.556452 -0.500000 0.050000
-0.540323 -0.500000 0.050000
-0.524194 -0.500000 0.050000
-0.508065 -0.500000 0.050000
-0.491935 -0.500000 0.050000
-0.475807 -0.500000 0.050000
-0.459677 -0.500000 0.050000
-0.443548 -0.500000 0.050000
-0.427419 -0.500000 0.050000
-0.411290 -0.500000 0.050000
-0.395161 -0.500000 0.050000
-0.379032 -0.500000 0.050000
-0.362903 -0.500000 0.050000
-0.346774 -0.500000 0.050000
-0.330645 -0.500000 0.050000
-0.314516 -0.500000 0.050000
-0.298387 -0.500000 0.050000
-0.282258 -0.500000 0.050000
-0.266129 -0.500000 0.050000
-0.250000 -0.500000 0.050000
-0.233871 -0.500000 0.050000
-0.217742 -0.500000 0.050000
-0.201613 -0.500000 0.050000
-0.185484 -0.500000 0.050000
-0.169355 -0.500000 0.050000
-0.153226 -0.500000 0.050000
-0.137097 -0.500000 0.050000
-0.120968 -0.500000 0.050000
-0.104839 -0.500000 0.050000
-0.088710 -0.500000 0.050000
-0.072581 -0.500000 0.050000
-0.056452 -0.500000 0.050000
-0.040323 -0.500000 0.050000
-0.024194 -0.500000 0.050000
-0.008065 -0.500000 0.050000
0.008065 -0.500000 0.050000
0.024194 -0.500000 0.050000
0.040323 -0.500000 0.050000
0.056452 -0.500000 0.050000
0.072581 -0.500000 0.050000
0.088710 -0.500000 0.050000
0.104839 -0.500000 0.050000
0.120968 -0.500000 0.050000
0.137097 -0.500000 0.050000
0.153226 -0.500000 0.050000
0.169355 -0.500000 0.050000
0.185484 -0.500000 0.050000
0.201613 -0.500000 0.050000
0.217742 -0.500000 0.050000
0.233871 -0.500000 0.050000
0.250000 -0.500000 0.050000
0.266129 -0.500000 0.050000
0.282258 -0.500000 0.050000
0.298387 -0.500000 0.050000
0.314516 -0.500000 0.050000
0.330645 -0.500000 0.050000
0.346774 -0.500000 0.050000
0.362903 -0.500000 0.050000
0.379032 -0.500000 0.050000
0.395161 -0.500000 0.050000
0.411290 -0.500000 0.050000
0.427419 -0.500000 0.050000
0.443548 -0.500000 0.050000
0.459677 -0.500000 0.050000
0.475807 -0.500000 0.050000
0.491935 -0.500000 0.050000
0.508065 -0.500000 0.050000
0.524194 -0.500000 0.050000
0.540323 -0.500000 0.050000
0.556452 -0.500000 0.050000
0.572581 -0.500000 0.050000
0.588710 -0.500000 0.050000
0.604839 -0.500000 0.050000
0.620968 -0.500000 0.050000
0.637097 -0.500000 0.050000
0.653226 -0.500000 0.050000
0.669355 -0.500000 0.050000
0.685484 -0.500000 0.050000
0.701613 -0.500000 0.050000
0.717742 -0.500000 0.050000
0.733871 -0.500000 0.050000
0.769344 -0.519986 0.050000
0.778168 -0.518684 0.050000
0.796412 -0.509140 0.050000
0.811365 -0.494777 0.050000
0.823153 -0.477847 0.050000
0.832167 -0.459683 0.050000
0.839181 -0.440847 0.050000
0.844267 -0.421683 0.050000
0.847870 -0.402313 0.050000
0.849943 -0.382890 0.050000
0.850688 -0.363489 0.050000
0.850046 -0.344227 0.050000
0.848102 -0.325228 0.050000
0.844827 -0.306622 0.050000
0.840288 -0.288615 0.050000
0.834562 -0.271350 0.050000
0.827860 -0.255094 0.050000
0.820524 -0.239800 0.050000
0.813162 -0.225502 0.050000
0.806649 -0.211737 0.050000
0.801058 -0.197763 0.050000
0.796736 -0.184206 0.050000
0.793557 -0.169920 0.050000
0.791312 -0.155630 0.050000
0.789727 -0.141037 0.050000
0.788505 -0.126279 0.050000
0.787431 -0.111361 0.050000
0.786367 -0.096327 0.050000
0.785257 -0.081228 0.050000
0.784076 -0.066072 0.050000
0.782823 -0.050902 0.050000
0.781502 -0.035715 0.050000
0.780120 -0.020541 0.050000
0.778682 -0.005380 0.050000
0.777190 0.009751 0.050000
0.775650 0.024845 0.050000
0.774064 0.039890 0.050000
0.772439 0.054871 0.050000
0.770779 0.069780 0.050000
0.769099 0.084591 0.050000
0.767416 0.099303 0.050000
0.765768 0.113875 0.050000
0.764208 0.128322 0.050000
0.762833 0.142599 0.050000
[...]
CELL_DATA 34596
SCALARS Mises_Stress_Abs(MPa) float 1
LOOKUP_TABLE default
143.577000
149.026000
108.710000
130.445000
138.584000
131.034000
139.055000
136.841000
92.058000
141.660000
36.064300
120.935000
66.378500
16.580700
5.732700
3.122370
2.396660
0.971348
53.697700
0.542930
6.333530
26.179100
79.602500
4.766590
3.746890
3.564470
1.876770
0.901731
78.806700
45.462600
70.271300
22.584300
30.886600
34.991600
55.156800
63.839900
49.959900
33.492800
52.993400
34.807700
55.958100
65.842000
74.397600
81.988900
38.528200
54.951400
4.107320
4.965360
3.411580
3.863880
1.763080
68.511600
78.887500
65.992500
52.834500
42.270900
69.721000
81.043600
70.398200
73.513900
73.494000
68.944500
72.526000
22.899500
65.334100
73.941000
23.017500
57.825700
46.692300
2.749240
4.518500
5.087580
4.967230
4.009580
67.882800
48.309800
81.015200
160.074000
52.786400
51.163100
173.437000
164.478000
51.856900
72.944900
182.190000
55.499900
46.263200
172.368000
174.577000
86.446300
171.387000
168.416000
4.704530
6.178860
4.846130
5.685830
5.429380
36.145300
43.107600
65.269400
57.991100
86.612600
94.460700
43.231800
40.717900
65.105300
37.700100
6.401140
7.136870
5.949420
6.171540
40.519700
31.948000
29.809300
13.600100
17.342200
57.185100
35.152000
47.064700
5.618650
60.377000
54.771200
64.977100
42.875700
60.473700
36.699100
26.933400
8.285290
6.677940
6.614140
7.626650
8.370420
31.655100
40.275500
45.638400
41.884500
28.843800
38.580100
34.194500
34.268800
29.423500
34.364500
8.273970
9.975360
9.166680
7.732030
7.846640
33.372000
34.708400
27.136100
38.077200
34.273300
18.041000
26.333400
35.076300
45.349900
29.578500
9.045130
12.503000
8.069230
9.797700
10.522500
18.167600
27.473300
29.578700
32.000900
23.232100
8.880530
11.261000
13.034600
12.908700
9.980520
12.530100
33.582000
37.222100
32.275400
12.591800
22.072400
25.217300
22.242500
33.816100
16.491200
13.087300
12.272000
12.030800
17.304600
9.674350
23.902500
33.427900
37.915900
31.835300
21.656700
23.387900
18.490900
20.588500
15.578600
24.357200
13.446100
14.967900
15.757800
10.328800
33.548000
16.641300
28.215100
35.503800
31.621100
39.327600
18.883600
16.805900
23.473500
13.978900
17.942900
11.084200
15.792900
16.931500
18.167600
37.438000
22.914600
44.508800
40.225300
51.044700
34.794700
14.779900
16.584500
17.430300
13.283900
14.695800
18.012800
22.479800
20.026400
19.170900
18.167200
47.176400
48.081900
38.231500
43.887500
14.740900
12.083200
58.054200
13.909400
11.448700
13.814600
39.248100
24.098200
17.702200
34.645300
26.089300
75.093200
44.327800
42.096500
71.531400
62.270700
11.078100
10.736400
9.837150
10.156000
12.358900
60.043900
26.610300
26.626900
27.887900
46.984100
76.464300
30.905100
51.016600
94.548700
54.752000
8.061890
9.986300
8.865870
8.074500
9.834810
65.204000
127.274000
37.761500
114.286000
129.590000
31.246800
36.775100
115.032000
116.940000
50.100900
44.013400
55.021600
136.254000
65.660000
130.165000
50.348900
72.986700
7.728440
6.639820
7.941760
8.031990
4.605500
36.620000
75.044500
65.842200
29.730200
40.957700
49.405400
63.061900
73.005900
71.955400
29.059500
56.121000
46.076500
47.923400
64.748100
67.296800
57.343600
62.847900
6.424370
3.412540
5.018710
6.174630
6.476460
36.175900
53.223500
34.630000
43.561700
30.478400
9.181550
52.278000
69.724900
14.560700
43.160400
41.797400
17.811500
71.638600
9.923750
30.189600
56.696100
17.851800
1.512230
3.716350
4.921700
5.060650
4.431890
45.043500
29.259300
40.047600
40.235800
47.311200
45.519200
53.853800
47.814500
47.371800
47.358600
21.520300
47.313500
54.374100
64.832100
61.444600
48.572700
59.736200
1.179760
4.554620
2.264190
3.077590
4.034120
16.006300
99.851000
30.275000
97.205400
75.061100
62.746700
42.550200
86.316100
105.576000
95.480500
106.261000
21.312600
82.572000
40.823300
66.824400
7.455460
95.974300
3.725040
2.725960
1.860440
4.294910
1.194160
0.160309
15.981400
27.006800
9.507760
9.123290
22.999600
16.894100
15.090700
8.489610
13.426200
8.204560
10.248400
7.073960
6.163090
11.764800
10.894700
5.653240
8.431210
5.105630
6.138180
5.835260
22.714700
24.476700
18.492300
21.846600
18.483600
19.460800
16.197100
19.118200
23.291500
13.082900
6.343260
15.991900
24.734900
8.478070
5.367610
7.186340
18.435600
12.364700
22.736100
22.031900
23.408100
11.702500
11.768700
7.209680
11.804800
7.993540
9.740040
7.458140
9.361310
8.649160
11.592400
12.608700
11.282500
2.688820
7.440420
5.934190
5.172230
7.361900
6.300080
5.955150
6.962250
5.271850
6.205280
12.183000
6.878630
7.895990
8.251950
9.156060
8.467360
13.895500
10.274000
9.619610
12.411600
9.964850
12.212300
11.854200
7.059520
4.204910
17.356000
13.774700
14.755300
15.288500
11.985400
15.706000
15.609300
16.929300
7.663290
19.552600
13.439700
16.226000
18.005300
9.630950
17.373900
13.211900
16.985300
14.094100
17.099300
15.144100
16.176100
11.811600
19.439100
16.175900
18.064300
14.628200
17.505500
14.095400
12.039400
5.135330
10.403000
13.345800
32.706300
33.104200
15.623500
20.024400
16.110800
24.968700
21.141100
28.209300
42.303500
39.727300
38.493500
29.953600
34.998100
28.831600
23.558800
25.018900
27.082200
37.570700
12.753700
14.793300
13.246000
17.328500
7.950160
7.976310
16.993600
22.253100
25.537000
29.221000
33.117900
10.158700
10.822000
0.005159
0.002774
22.653900
19.543700
16.477200
19.959800
18.363700
26.236700
7.613360
0.010015
0.018982
7.769040
24.423000
11.041000
0.005034
25.403200
0.008970
2.567300
4.339370
14.254200
9.657870
5.602560
0.017007
4.078100
14.886500
26.709800
10.877600
0.034359
13.122800
25.672900
6.001840
0.005586
10.570800
0.007814
4.375840
8.539860
3.624050
1.894740
25.694400
0.014738
12.706600
15.818100
0.030799
27.505900
12.246000
0.005810
4.117420
9.538800
10.629700
0.007121
2.966400
4.755710
0.014578
1.659670
15.900700
26.420900
0.029817
11.805200
0.005656
0.007473
26.916600
13.126100
11.648900
14.507100
6.245590
18.000600
20.331700
0.005503
0.029211
24.853200
0.014169
12.300500
4.454400
14.071300
12.355600
26.901300
9.664000
0.009343
0.005755
0.003649
24.956900
36.232400
34.121200
0.028795
22.985100
0.014052
12.297200
13.665800
4.773250
12.894700
25.135000
0.014384
0.003012
0.008938
0.013675
26.842700
36.784700
24.970000
0.028608
27.017700
44.400700
7.915680
11.750500
0.013958
9.696520
20.851700
23.243800
12.232300
17.900200
0.014241
0.010207
0.004089
16.261800
0.017684
0.028486
16.766700
32.451200
41.766100
0.004418
0.013918
16.484800
12.584300
8.440860
9.211030
20.372800
12.470300
40.293500
0.007874
0.017692
4.548780
15.961300
64.220000
43.918100
59.040700
0.028021
31.275600
14.550300
17.646700
0.013633
10.894000
5.679140
11.821200
12.643900
11.538700
17.085900
0.008383
40.409500
28.582200
28.829700
16.187700
27.384500
7.735590
14.569200
3.027560
0.027838
0.005368
14.280700
0.013072
5.390260
13.114700
21.964900
29.640100
21.757200
13.171500
21.894700
29.479500
29.871900
22.931900
11.559700
13.252500
4.427790
10.530600
2.692070
9.427440
4.993440
2.634510
11.638400
11.405200
0.006597
0.014086
14.586800
18.915900
29.172500
10.271000
20.189100
15.650600
29.750400
19.730200
21.241500
32.006500
23.536000
31.359900
34.268100
17.739600
3.964360
34.228500
32.069300
20.479500
32.013900
9.811110
32.633300
40.486600
17.092100
11.571500
35.798600
14.976600
31.186700
32.416500
36.213500
50.241000
12.062100
52.128700
22.716000
16.769900
15.969600
20.240300
12.815400
14.391900
3.531860
17.843300
15.165700
17.979900
15.039300
9.934990
11.181000
11.469400
16.567200
18.449900
23.100200
20.968200
17.241700
13.941900
15.412900
7.414030
10.722600
0.028732
4.523950
15.953700
13.272200
9.617880
34.475200
41.454800
45.838400
28.304200
40.015400
24.565100
27.961900
4.795120
18.193300
8.602140
19.217100
22.116300
12.697000
10.409200
14.100800
16.368200
14.778300
5.213900
6.662400
17.960300
7.311410
18.269500
4.367110
11.509300
18.424800
8.921480
13.289200
26.024100
33.036400
8.015660
20.325500
14.090600
16.714300
14.651700
26.462700
32.119700
31.865500
13.698900
9.849010
14.414400
17.767900
23.530100
14.950400
28.103000
21.275400
17.472600
13.836100
20.810000
12.377300
6.472260
14.687500
8.111420
16.039300
15.074100
22.872000
7.735460
11.973900
6.276380
11.258000
16.528600
7.606850
23.225000
9.130000
18.486400
19.579900
3.944740
13.216300
9.073600
5.899010
14.270600
10.254200
5.771440
10.215500
14.138700
14.128500
7.393260
9.019630
18.617300
10.819000
4.525850
7.962830
5.233030
9.680450
6.799990
11.987600
13.814000
8.850210
7.817250
4.070380
13.534200
5.355880
10.043500
13.151200
14.471800
7.645530
5.484860
5.500800
4.444540
9.805140
12.154800
7.031130
6.540830
7.606410
7.803320
9.968050
8.144150
10.435900
5.493040
6.250040
3.267200
4.629790
6.396590
3.275560
2.233520
8.348680
3.768780
3.971980
4.299990
3.375500
1.209910
4.452250
8.193130
6.345520
6.051070
4.192560
2.863070
1.990740
6.050020
10.350300
2.980690
8.017950
8.043190
8.400450
4.767430
2.016730
1.624650
3.111930
4.564710
1.864620
8.213350
11.647800
32.194900
3.874010
6.239100
4.525520
9.860700
12.192000
19.563900
9.986970
22.919400
14.183600
0.013103
9.783670
0.009310
0.014550
30.180900
35.179500
17.212000
20.135900
22.317900
0.010506
0.014872
8.067220
0.013242
12.766200
17.028200
13.891300
30.000700
20.565700
9.252620
0.015541
6.911640
0.012583
0.013596
17.243600
14.940700
13.632900
25.031500
2.576000
3.352300
0.014802
7.940000
5.507260
0.014300
0.016481
20.785700
11.838800
12.235500
14.934500
0.015093
0.017910
5.366850
0.018159
4.802070
16.263400
10.883400
12.845300
10.337300
3.662640
4.493500
0.016428
0.021302
0.019458
13.691200
8.427330
9.490520
9.903720
0.026417
0.017437
0.021917
7.866790
9.029740
8.878450
7.217610
0.030609
0.023568
1.808370
2.961980
0.019249
5.066980
6.890350
6.285360
9.148150
4.094430
6.584230
4.108160
4.986760
2.366480
4.397600
5.502210
9.812930
50.290800
32.955700
26.528800
61.538600
39.352300
14.994000
0.015486
0.008648
26.548900
16.878900
57.380400
28.926600
33.288100
51.681700
0.008365
19.924900
13.461400
0.013705
40.573500
26.508800
28.254300
46.946800
20.879300
11.116300
19.092900
0.008479
0.014522
0.013258
38.628100
26.999800
41.704900
22.423300
15.627700
19.774000
39.394600
39.823800
41.862800
26.372900
42.092600
43.480200
33.081600
35.599300
45.063600
47.996600
56.682300
48.257500
57.515900
53.619800
50.748200
60.531300
53.259500
55.486600
45.731100
50.886100
9.650670
54.297600
57.259900
33.871300
21.885700
13.181100
59.529500
62.823600
45.484800
24.764200
26.456100
20.112000
21.599100
22.619100
23.582700
24.450300
23.177400
22.612400
21.895300
20.575200
24.535200
30.752900
27.655300
33.131200
30.205600
31.198200
25.952400
26.114200
29.055300
27.426100
28.913900
30.398900
35.538100
41.561700
13.697400
35.924100
37.693600
29.235300
39.011600
27.516600
58.150000
21.435000
55.552800
52.156400
58.423600
29.381600
26.877900
4.729710
5.599510
6.019700
5.156420
11.309600
6.418400
7.914880
4.070540
3.485770
17.655100
5.484940
4.331720
4.761920
6.321190
5.855520
3.763230
5.172970
3.325830
6.786390
9.876250
6.732740
12.238300
39.584200
24.264000
31.838000
41.756100
44.893700
47.466000
20.333600
30.794900
14.961500
8.882010
20.713000
22.581800
19.428900
17.999300
20.019700
22.062400
20.623500
21.562100
21.418800
21.689500
22.563100
23.184000
25.264400
22.029100
16.641600
24.017300
24.435300
25.215300
26.159900
9.281080
23.218500
53.062800
48.492200
47.966200
28.796100
44.013600
35.805200
38.652100
28.723200
37.007300
20.284000
14.481800
39.391400
43.624900
42.089300
43.539600
45.302800
40.709600
47.062600
41.546100
45.331000
46.887100
50.182200
50.961000
48.920700
48.193400
49.265500
55.818100
29.862900
54.117100
24.777000
53.141000
45.982200
46.753600
61.981800
48.740800
69.964700
61.302400
64.794300
57.161900
67.097900
67.893200
70.664100
72.899800
64.271100
61.374700
74.276400
75.861600
74.883300
87.248100
88.716100
78.599000
80.938300
75.521500
44.373700
32.718400
73.063100
48.404000
68.485000
32.445700
43.239000
0.007158
21.948800
0.012060
34.204500
78.113000
23.049400
45.270600
72.122800
0.011018
36.269700
0.019294
26.283700
38.749900
28.205700
68.156300
71.638600
46.671000
17.355200
25.620100
0.009179
0.016611
0.012033
0.018042
0.015810
0.014490
0.014733
0.028192
0.019689
0.046604
0.024310
0.687313
1.754670
1.032640
0.039571
1.075310
20.681600
27.016700
17.634200
12.674200
10.503700
6.399810
4.784290
2.131940
1.232660
0.931884
0.834744
0.471913
0.306123
0.143134
0.059764
0.445300
0.371268
0.226271
0.130795
0.081678
0.050650
0.395755
0.332082
0.194289
0.109504
0.083693
0.059376
0.307757
0.256578
0.184133
0.128509
0.091710
0.078654
0.268733
0.231166
0.178997
0.136877
0.109995
0.095687
0.235793
0.214966
0.181310
0.146856
0.122016
0.110184
0.221690
0.205974
0.179853
0.152347
0.131550
0.120385
0.207928
0.198755
0.179046
0.155196
0.136581
0.126817
0.198511
0.191491
0.175418
0.155094
0.138522
0.129486
0.189435
0.184627
0.170985
0.152481
0.137164
0.128835
0.180368
0.176261
0.164231
0.147387
0.132950
0.124960
0.170510
0.166916
0.155726
0.139700
0.125761
0.117988
0.158560
0.155012
0.144502
0.129290
0.115620
0.107892
0.144169
0.140594
0.130532
0.115897
0.102422
0.094681
0.126077
0.122556
0.113228
0.099521
0.086252
0.078482
0.104346
0.101191
0.092945
0.080419
0.067561
0.059753
0.079833
0.077685
0.070948
0.060114
0.047810
0.039815
0.059781
0.059278
0.053506
0.043891
0.032326
0.024019
0.059696
0.060991
0.054421
0.043701
0.033846
0.027408
0.078397
0.080190
0.071707
0.058749
0.049580
0.044388
0.100734
0.102705
0.092348
0.077021
0.067041
0.061985
0.116325
0.120402
0.109684
0.092058
0.081653
0.076494
0.127601
0.131984
0.120648
0.102483
0.091910
0.086981
0.130490
0.135972
0.125316
0.107773
0.097854
0.093336
0.126035
0.133354
0.124673
0.108634
0.099904
0.096028
0.117905
0.126268
0.119832
0.106239
0.098867
0.095788
0.107490
0.116776
0.112668
0.101605
0.095794
0.093455
0.096826
0.106692
0.104649
0.095989
0.091541
0.089910
0.087114
0.097337
0.096979
0.090260
0.086953
0.085874
0.079305
0.089601
0.090379
0.085106
0.082595
0.081923
0.073525
0.083768
0.085266
0.080876
0.078858
0.078428
0.069793
0.079871
0.081690
0.077729
0.075916
0.075601
0.067739
0.077648
0.079522
0.075633
0.073815
0.073512
0.066912
0.076725
0.078530
0.074455
0.072505
0.072150
0.067037
0.076817
0.078431
0.074053
0.071893
0.071459
0.067735
0.077641
0.079078
0.074284
0.071900
0.071370
0.069067
0.079157
0.080348
0.075088
0.072451
0.071822
0.070975
0.081357
0.082246
0.076415
0.073504
0.072761
0.073622
0.084320
0.084786
0.078252
0.075011
0.074127
0.077126
0.088136
0.087985
0.080566
0.076911
0.075847
0.081567
0.092839
0.091827
0.083285
0.079110
0.077808
0.086984
0.098397
0.096204
0.086278
0.081448
0.079844
0.093238
0.104616
0.100892
0.089304
0.083696
0.081714
0.100007
0.111097
0.105483
0.092020
0.085514
0.083098
0.106629
0.117135
0.109357
0.093910
0.086489
0.083579
0.112136
0.121716
0.111653
0.094410
0.086070
0.082693
0.115140
0.123563
0.111420
0.092716
0.083774
0.079911
0.114608
0.121325
0.107436
0.088387
0.079035
0.074782
0.108260
0.113722
0.099351
0.080893
0.071567
0.066959
0.095798
0.100445
0.086811
0.070347
0.061474
0.056337
0.080158
0.083281
0.070883
0.058289
0.049517
0.043282
0.061396
0.064174
0.055276
0.047763
0.038502
0.029035
0.050380
0.052276
0.048519
0.045919
0.033923
0.018072
0.059561
0.059062
0.057741
0.055373
0.040002
0.020637
0.076527
0.074566
0.073180
0.069441
0.051461
0.031865
0.096840
0.093448
0.090557
0.083049
0.062163
0.042361
0.104437
0.101145
0.098036
0.091774
0.069498
0.048963
0.117531
0.112885
0.108664
0.096854
0.070932
0.050583
0.097252
0.094070
0.092001
0.089422
0.065673
0.046353
0.115563
0.106488
0.105074
0.079631
0.049839
0.038166
0.055029
0.062682
0.063199
0.037670
0.042708
0.032149
0.514340
0.495184
0.484671
0.295868
0.116663
0.044056
1.316540
0.995054
0.499975
0.280958
0.125987
0.058997
0.269115
0.246509
0.122571
0.110218
0.065251
0.049861
0.129939
0.119372
0.077435
0.063274
0.057109
0.053757
0.163125
0.134407
0.096711
0.077772
0.067988
0.062929
0.170942
0.153152
0.124366
0.096701
0.080249
0.073054
0.172005
0.159965
0.136685
0.110578
0.091493
0.081820
0.169054
0.162743
0.143959
0.118713
0.099146
0.088902
0.164600
0.160844
0.145548
0.122966
0.104057
0.093598
0.158369
0.145121
0.124065
0.105984
0.095857
0.154941
0.153619
0.142039
0.122714
0.105422
0.095537
0.149684
0.148460
0.137531
0.119124
0.102418
0.092781
0.143198
0.141552
0.131073
0.113554
0.097235
0.087702
0.136436
0.133870
0.123161
0.106100
0.090065
0.080595
0.129009
0.125002
0.113752
0.097214
0.081450
0.072049
0.122663
0.116467
0.103988
0.087742
0.072422
0.063250
0.119595
0.110483
0.095660
0.079473
0.064817
0.056138
0.123942
0.111428
0.092686
0.075320
0.061205
0.053345
0.136757
0.121743
0.097973
0.077183
0.063058
0.055650
0.151750
0.135813
0.107763
0.083057
0.067744
0.060437
0.142848
0.133262
0.109571
0.085282
0.071174
0.064609
0.133456
0.129339
0.109402
0.085793
0.073235
0.067271
0.124389
0.124732
0.107572
0.085948
0.074286
0.069026
0.112325
0.119150
0.106300
0.085758
0.075397
0.070572
0.103879
0.114806
0.105228
0.086093
0.076582
0.072367
0.100378
0.111663
0.103459
0.086367
0.077763
0.074122
0.096855
0.107562
0.100736
0.085764
0.078431
0.075355
0.091746
0.101788
0.096615
0.084185
0.078107
0.075717
0.084891
0.094712
0.091505
0.081620
0.076870
0.075112
0.077777
0.087564
0.086131
0.078561
0.074953
0.073761
0.071268
0.081198
0.081310
0.075471
0.072765
0.071992
0.066469
0.076433
0.077490
0.072801
0.070647
0.070151
0.063491
0.073388
0.074916
0.070761
0.068858
0.068492
0.062117
0.071877
0.073509
0.069410
0.067519
0.067172
0.061920
0.071538
0.072986
0.068691
0.066648
0.066258
0.062166
0.071827
0.073142
0.068458
0.066224
0.065754
0.062908
0.072673
0.073744
0.068658
0.066193
0.065644
0.063853
0.073922
0.074811
0.069223
0.066531
0.065892
0.065332
0.075721
0.076326
0.070157
0.067195
0.066458
0.067383
0.078163
0.078339
0.071432
0.068144
0.067281
0.070147
0.081312
0.080867
0.073003
0.069307
0.068281
0.073641
0.085194
0.083863
0.074793
0.070582
0.069345
0.077775
0.089717
0.087226
0.076669
0.071835
0.070330
0.082347
0.094696
0.090766
0.078459
0.072895
0.071074
0.087039
0.099804
0.094207
0.079943
0.073596
0.071411
0.091544
0.104671
0.097220
0.080942
0.073774
0.071215
0.095704
0.108924
0.099511
0.081281
0.073391
0.070414
0.099968
0.112509
0.100892
0.081074
0.072397
0.069055
0.105183
0.115671
0.101593
0.080228
0.070982
0.067184
0.112916
0.118894
0.101225
0.079078
0.069207
0.064800
0.121313
0.121453
0.100107
0.077872
0.066879
0.061767
0.126400
0.121761
0.098550
0.075948
0.064024
0.057589
0.130754
0.120910
0.095494
0.074080
0.060013
0.051762
0.131514
0.116875
0.090633
0.071520
0.055242
0.043674
0.113802
0.100415
0.081744
0.068565
0.050327
0.033707
0.096885
0.087191
0.077299
0.069219
0.047798
0.023723
0.083117
0.077936
0.076454
0.072809
0.048945
0.017821
0.074267
0.073682
0.079083
0.077962
0.052739
0.021156
0.057803
0.062274
0.076386
0.082557
0.058030
0.031231
0.059596
0.061871
0.080036
0.088012
0.064248
0.043566
0.078851
0.086080
0.096553
0.100177
0.074330
0.053106
0.289220
0.287696
0.286281
0.187178
0.090061
0.054038
0.612344
0.586259
0.571088
0.372643
0.132311
0.047856
1.285220
0.986905
0.541112
0.275299
0.127177
0.066684
0.626118
0.460742
0.207402
0.138169
0.098032
0.063208
0.191296
0.145235
0.125879
0.106496
0.077741
0.068628
0.100598
0.109531
0.104453
0.082566
0.073396
0.068297
0.105176
0.112878
0.104873
0.085064
0.072249
0.066450
0.118489
0.125000
0.114058
0.090585
0.073545
0.065034
0.121365
0.128778
0.119046
0.095686
0.075679
0.064609
0.124887
0.131299
0.121580
0.098354
0.077295
0.064856
0.124365
0.130323
0.121483
0.099355
0.078043
0.064976
0.124510
0.129091
0.120148
0.098763
0.077699
0.064513
0.123458
0.126627
0.117636
0.097093
0.076383
0.063265
0.123382
0.124477
0.114663
0.094621
0.074406
0.061530
0.124380
0.122786
0.111637
0.092053
0.072470
0.060060
0.128357
0.123121
0.109658
0.090256
0.071604
0.060024
0.137324
0.127348
0.110080
0.090500
0.072960
0.062552
0.153570
0.137859
0.115055
0.094073
0.077384
0.068180
0.177538
0.156301
0.125582
0.101128
0.084417
0.075730
0.205128
0.180227
0.140967
0.110493
0.091596
0.082709
0.231091
0.206561
0.160379
0.119202
0.096207
0.086171
0.203248
0.186683
0.148088
0.112227
0.093177
0.084430