# vtk DataFile Version 2.0
test
ASCII
DATASET UNSTRUCTURED_GRID
POINTS 41454 float
0.750000 -0.500000 0.050000
0.750000 0.470000 0.050000
0.766703 -0.493064 0.050000
0.772024 -0.479829 0.050000
0.777419 -0.463208 0.050000
0.780173 -0.447239 0.050000
0.782584 -0.430579 0.050000
0.784194 -0.414158 0.050000
0.785485 -0.397455 0.050000
0.786333 -0.380824 0.050000
0.786867 -0.364042 0.050000
0.787043 -0.347291 0.050000
0.786886 -0.330448 0.050000
0.786378 -0.313652 0.050000
0.785505 -0.296814 0.050000
0.784264 -0.280091 0.050000
0.782643 -0.263417 0.050000
0.780680 -0.246995 0.050000
0.778447 -0.230771 0.050000
0.776063 -0.214925 0.050000
0.773735 -0.199379 0.050000
0.771567 -0.184085 0.050000
0.769752 -0.169023 0.050000
0.768275 -0.153923 0.050000
0.767146 -0.138883 0.050000
0.766305 -0.123672 0.050000
0.765664 -0.108391 0.050000
0.765168 -0.092956 0.050000
0.764750 -0.077435 0.050000
0.764380 -0.061816 0.050000
0.764027 -0.046142 0.050000
0.763680 -0.030416 0.050000
0.763329 -0.014663 0.050000
0.762972 0.001113 0.050000
0.762606 0.016900 0.050000
0.762230 0.032695 0.050000
0.761844 0.048488 0.050000
0.761449 0.064278 0.050000
0.761045 0.080055 0.050000
0.760633 0.095819 0.050000
0.760218 0.111556 0.050000
0.759801 0.127264 0.050000
0.759391 0.142925 0.050000
0.758998 0.158535 0.050000
0.758640 0.174066 0.050000
0.758341 0.189516 0.050000
0.758137 0.204854 0.050000
0.758075 0.220082 0.050000
0.758212 0.235184 0.050000
0.758608 0.250198 0.050000
0.759332 0.265119 0.050000
0.760420 0.280108 0.050000
0.761828 0.295178 0.050000
0.763525 0.310521 0.050000
0.765262 0.326253 0.050000
0.766846 0.342339 0.050000
0.768035 0.358868 0.050000
0.768591 0.375613 0.050000
0.768466 0.392503 0.050000
0.767381 0.409424 0.050000
0.765528 0.425989 0.050000
0.762087 0.442430 0.050000
0.758505 0.457105 0.050000
-0.750000 0.470000 0.050000
0.733871 0.470000 0.050000
0.717742 0.470000 0.050000
0.701613 0.470000 0.050000
0.685484 0.470000 0.050000
0.669355 0.470000 0.050000
0.653226 0.470000 0.050000
0.637097 0.470000 0.050000
0.620968 0.470000 0.050000
0.604839 0.470000 0.050000
0.588710 0.470000 0.050000
0.572581 0.470000 0.050000
0.556452 0.470000 0.050000
0.540323 0.470000 0.050000
0.524194 0.470000 0.050000
0.508065 0.470000 0.050000
0.491935 0.470000 0.050000
0.475807 0.470000 0.050000
0.459677 0.470000 0.050000
0.443548 0.470000 0.050000
0.427419 0.470000 0.050000
0.411290 0.470000 0.050000
0.395161 0.470000 0.050000
0.379032 0.470000 0.050000
0.362903 0.470000 0.050000
0.346774 0.470000 0.050000
0.330645 0.470000 0.050000
0.314516 0.470000 0.050000
0.298387 0.470000 0.050000
0.282258 0.470000 0.050000
0.266129 0.470000 0.050000
0.250000 0.470000 0.050000
0.233871 0.470000 0.050000
0.217742 0.470000 0.050000
0.201613 0.470000 0.050000
0.185484 0.470000 0.050000
0.169355 0.470000 0.050000
0.153226 0.470000 0.050000
0.137097 0.470000 0.050000
0.120968 0.470000 0.050000
0.104839 0.470000 0.050000
0.088710 0.470000 0.050000
0.072581 0.470000 0.050000
0.056452 0.470000 0.050000
0.040323 0.470000 0.050000
0.024194 0.470000 0.050000
0.008065 0.470000 0.050000
-0.008065 0.470000 0.050000
-0.024194 0.470000 0.050000
-0.040323 0.470000 0.050000
-0.056452 0.470000 0.050000
-0.072581 0.470000 0.050000
-0.088710 0.470000 0.050000
-0.104839 0.470000 0.050000
-0.120968 0.470000 0.050000
-0.137097 0.470000 0.050000
-0.153226 0.470000 0.050000
-0.169355 0.470000 0.050000
-0.185484 0.470000 0.050000
-0.201613 0.470000 0.050000
-0.217742 0.470000 0.050000
-0.233871 0.470000 0.050000
-0.250000 0.470000 0.050000
-0.266129 0.470000 0.050000
-0.282258 0.470000 0.050000
-0.298387 0.470000 0.050000
-0.314516 0.470000 0.050000
-0.330645 0.470000 0.050000
-0.346774 0.470000 0.050000
-0.362903 0.470000 0.050000
-0.379032 0.470000 0.050000
-0.395161 0.470000 0.050000
-0.411290 0.470000 0.050000
-0.427419 0.470000 0.050000
-0.443548 0.470000 0.050000
-0.459677 0.470000 0.050000
-0.475807 0.470000 0.050000
-0.491935 0.470000 0.050000
-0.508065 0.470000 0.050000
-0.524194 0.470000 0.050000
-0.540323 0.470000 0.050000
-0.556452 0.470000 0.050000
-0.572581 0.470000 0.050000
-0.588710 0.470000 0.050000
-0.604839 0.470000 0.050000
-0.620968 0.470000 0.050000
-0.637097 0.470000 0.050000
-0.653226 0.470000 0.050000
-0.669355 0.470000 0.050000
-0.685484 0.470000 0.050000
-0.701613 0.470000 0.050000
-0.717742 0.470000 0.050000
-0.733871 0.470000 0.050000
-0.750000 -0.500000 0.050000
-0.757498 0.456530 0.050000
-0.760807 0.441759 0.050000
-0.764039 0.425207 0.050000
-0.765858 0.408654 0.050000
-0.766982 0.391630 0.050000
-0.767253 0.374785 0.050000
-0.766930 0.357908 0.050000
-0.766059 0.341368 0.050000
-0.764853 0.325030 0.050000
-0.763429 0.309082 0.050000
-0.762019 0.293406 0.050000
-0.760695 0.277955 0.050000
-0.759597 0.262699 0.050000
-0.758730 0.247459 0.050000
-0.758099 0.232277 0.050000
-0.757679 0.217017 0.050000
-0.757422 0.201724 0.050000
-0.757296 0.186343 0.050000
-0.757263 0.170912 0.050000
-0.757300 0.155413 0.050000
-0.757385 0.139875 0.050000
-0.757507 0.124294 0.050000
-0.757657 0.108693 0.050000
-0.757828 0.093065 0.050000
-0.758018 0.077432 0.050000
-0.758223 0.061782 0.050000
-0.758442 0.046137 0.050000
-0.758670 0.030482 0.050000
-0.758903 0.014842 0.050000
-0.759138 -0.000794 0.050000
-0.759370 -0.016398 0.050000
-0.759605 -0.031967 0.050000
-0.759851 -0.047470 0.050000
-0.760128 -0.062899 0.050000
-0.760468 -0.078220 0.050000
-0.760908 -0.093433 0.050000
-0.761506 -0.108500 0.050000
-0.762315 -0.123464 0.050000
-0.763414 -0.138272 0.050000
-0.764857 -0.153071 0.050000
-0.766676 -0.167791 0.050000
-0.768904 -0.182666 0.050000
-0.771429 -0.197699 0.050000
-0.774197 -0.213013 0.050000
-0.777014 -0.228713 0.050000
-0.779732 -0.244719 0.050000
-0.782224 -0.261105 0.050000
-0.784373 -0.277698 0.050000
-0.786149 -0.294524 0.050000
-0.787501 -0.311446 0.050000
-0.788448 -0.328464 0.050000
-0.788957 -0.345516 0.050000
-0.789070 -0.362563 0.050000
-0.788726 -0.379634 0.050000
-0.787991 -0.396597 0.050000
-0.786695 -0.413636 0.050000
-0.785000 -0.430394 0.050000
-0.782330 -0.447407 0.050000
-0.779268 -0.463672 0.050000
-0.773159 -0.480556 0.050000
-0.767513 -0.493848 0.050000
-0.733871 -0.500000 0.050000
-0.717742 -0.500000 0.050000
-0.701613 -0.500000 0.050000
-0.685484 -0.500000 0.050000
-0.669355 -0.500000 0.050000
-0.653226 -0.500000 0.050000
-0.637097 -0.500000 0.050000
-0.620968 -0.500000 0.050000
-0.604839 -0.500000 0.050000
-0.588710 -0.500000 0.050000
-0.572581 -0.500000 0.050000
-0.556452 -0.500000 0.050000
-0.540323 -0.500000 0.050000
-0.524194 -0.500000 0.050000
-0.508065 -0.500000 0.050000
-0.491935 -0.500000 0.050000
-0.475807 -0.500000 0.050000
-0.459677 -0.500000 0.050000
-0.443548 -0.500000 0.050000
-0.427419 -0.500000 0.050000
-0.411290 -0.500000 0.050000
-0.395161 -0.500000 0.050000
-0.379032 -0.500000 0.050000
-0.362903 -0.500000 0.050000
-0.346774 -0.500000 0.050000
-0.330645 -0.500000 0.050000
-0.314516 -0.500000 0.050000
-0.298387 -0.500000 0.050000
-0.282258 -0.500000 0.050000
-0.266129 -0.500000 0.050000
-0.250000 -0.500000 0.050000
-0.233871 -0.500000 0.050000
-0.217742 -0.500000 0.050000
-0.201613 -0.500000 0.050000
-0.185484 -0.500000 0.050000
-0.169355 -0.500000 0.050000
-0.153226 -0.500000 0.050000
-0.137097 -0.500000 0.050000
-0.120968 -0.500000 0.050000
-0.104839 -0.500000 0.050000
-0.088710 -0.500000 0.050000
-0.072581 -0.500000 0.050000
-0.056452 -0.500000 0.050000
-0.040323 -0.500000 0.050000
-0.024194 -0.500000 0.050000
-0.008065 -0.500000 0.050000
0.008065 -0.500000 0.050000
0.024194 -0.500000 0.050000
0.040323 -0.500000 0.050000
0.056452 -0.500000 0.050000
0.072581 -0.500000 0.050000
0.088710 -0.500000 0.050000
0.104839 -0.500000 0.050000
0.120968 -0.500000 0.050000
0.137097 -0.500000 0.050000
0.153226 -0.500000 0.050000
0.169355 -0.500000 0.050000
0.185484 -0.500000 0.050000
0.201613 -0.500000 0.050000
0.217742 -0.500000 0.050000
0.233871 -0.500000 0.050000
0.250000 -0.500000 0.050000
0.266129 -0.500000 0.050000
0.282258 -0.500000 0.050000
0.298387 -0.500000 0.050000
0.314516 -0.500000 0.050000
0.330645 -0.500000 0.050000
0.346774 -0.500000 0.050000
0.362903 -0.500000 0.050000
0.379032 -0.500000 0.050000
0.395161 -0.500000 0.050000
0.411290 -0.500000 0.050000
0.427419 -0.500000 0.050000
0.443548 -0.500000 0.050000
0.459677 -0.500000 0.050000
0.475807 -0.500000 0.050000
0.491935 -0.500000 0.050000
0.508065 -0.500000 0.050000
0.524194 -0.500000 0.050000
0.540323 -0.500000 0.050000
0.556452 -0.500000 0.050000
0.572581 -0.500000 0.050000
0.588710 -0.500000 0.050000
0.604839 -0.500000 0.050000
0.620968 -0.500000 0.050000
0.637097 -0.500000 0.050000
0.653226 -0.500000 0.050000
0.669355 -0.500000 0.050000
0.685484 -0.500000 0.050000
0.701613 -0.500000 0.050000
0.717742 -0.500000 0.050000
0.733871 -0.500000 0.050000
0.747800 -0.483472 0.050000
0.757028 -0.473213 0.050000
0.761189 -0.459672 0.050000
0.764527 -0.444264 0.050000
0.766693 -0.428666 0.050000
0.768484 -0.412549 0.050000
0.769729 -0.396406 0.050000
0.770656 -0.380038 0.050000
0.771197 -0.363664 0.050000
0.771415 -0.347168 0.050000
0.771280 -0.330688 0.050000
0.770789 -0.314140 0.050000
0.769924 -0.297658 0.050000
0.768656 -0.281158 0.050000
0.766974 -0.264814 0.050000
0.764879 -0.248543 0.050000
0.762427 -0.232559 0.050000
0.759785 -0.216756 0.050000
0.757128 -0.201236 0.050000
0.754759 -0.185911 0.050000
0.752766 -0.170593 0.050000
0.751254 -0.155391 0.050000
0.750163 -0.140029 0.050000
0.749395 -0.124665 0.050000
0.748858 -0.109169 0.050000
0.748450 -0.093623 0.050000
0.748114 -0.077992 0.050000
0.747802 -0.062318 0.050000
0.747496 -0.046595 0.050000
0.747180 -0.030848 0.050000
0.746852 -0.015076 0.050000
0.746508 0.000708 0.050000
0.746150 0.016503 0.050000
0.745776 0.032299 0.050000
0.745388 0.048097 0.050000
0.744986 0.063889 0.050000
0.744569 0.079674 0.050000
0.744140 0.095444 0.050000
0.743699 0.111198 0.050000
0.743249 0.126925 0.050000
0.742793 0.142623 0.050000
0.742342 0.158276 0.050000
0.741909 0.173885 0.050000
0.741521 0.189426 0.050000
[...]
CELL_DATA 34596
SCALARS Mises_Stress_Abs(MPa) float 1
LOOKUP_TABLE default
35.876600
38.105900
26.659300
32.200500
35.162100
32.533400
35.799800
34.492300
24.011500
36.620500
9.459620
31.510200
17.499900
4.314690
1.433460
0.699525
0.580934
0.248648
13.065700
0.137273
1.550520
6.374700
19.483700
1.146440
0.884673
0.899683
0.455096
0.232320
19.375300
11.082100
17.183600
5.489320
7.669710
9.086070
13.778100
15.839700
12.481300
8.455600
13.714700
9.193240
14.417500
16.940200
19.222300
21.209800
9.800670
14.191000
0.936201
1.242940
0.854281
0.896451
0.451048
16.783400
19.466700
16.521300
12.864100
10.290000
17.549200
20.771300
17.785200
18.915600
18.929200
17.024600
18.143800
5.861510
16.557400
18.787000
5.915550
14.904400
12.273800
0.680383
1.191200
1.264420
1.153800
0.948267
16.861300
11.894700
20.125900
39.543900
12.806700
12.478800
43.041900
41.217200
13.334300
18.656700
46.650600
14.451500
12.008900
43.247500
44.230400
22.180000
44.076900
42.716000
1.171750
1.552870
1.183640
1.432760
1.276560
8.993910
10.547900
16.158300
14.044300
20.892500
24.790000
11.314000
10.533700
16.844700
9.695760
1.559380
1.831490
1.431820
1.515170
9.957000
7.854660
7.255610
3.176840
4.112680
13.806200
8.625850
11.664200
1.358210
14.656000
12.866100
17.235700
11.150600
15.845900
9.503340
6.985850
2.048050
1.606340
1.595510
1.904580
2.119400
7.548530
9.640370
11.207100
10.288400
6.578810
10.357900
9.119960
8.948710
7.634080
8.988840
2.011940
2.524550
2.215930
1.908920
1.914430
7.946060
8.551160
6.122050
9.345820
8.332280
4.823360
6.865630
9.150600
12.105200
7.863570
2.181350
3.079990
1.957030
2.431210
2.662340
4.764750
7.362860
7.757610
8.600970
6.115430
2.198800
2.747070
3.163220
3.245160
2.428820
3.088770
8.248560
9.155910
7.984580
3.219220
5.904610
6.601460
5.833760
9.075480
4.422350
3.305140
3.032950
2.910640
4.255360
2.348660
6.399940
8.306020
9.302800
7.832390
5.569480
6.154900
4.899110
5.548980
4.109710
6.567990
3.279100
3.655900
3.950530
2.565040
8.259140
4.048950
7.178940
8.889800
8.304320
9.655760
4.952980
4.518120
6.342310
3.756630
4.738110
2.692990
3.903790
4.125510
4.584320
9.213690
5.631280
11.221100
10.050300
13.134200
8.508640
4.006840
4.498390
4.606710
3.518210
3.924440
4.552210
5.538120
4.882120
4.686660
4.570830
11.858000
12.041600
9.417460
10.757400
4.016440
3.272030
14.832300
3.649270
3.082790
3.681380
9.721040
6.095780
4.485090
8.536610
6.552340
19.034300
10.971000
10.633400
17.848000
15.355900
2.990840
2.852120
2.696030
2.765540
3.287730
14.934600
6.760000
6.747520
7.063540
11.789900
19.325800
7.787760
12.889000
23.469000
13.542800
2.217450
2.697080
2.388270
2.211880
2.571740
16.390300
31.948400
9.549940
28.717700
32.526300
7.897020
9.302280
28.848600
29.350500
12.641100
11.136500
13.921100
34.119500
16.350100
32.493700
12.682600
18.410000
2.120350
1.806720
2.107760
2.164440
1.295930
9.251320
18.782400
16.496200
7.472970
10.317500
12.437000
15.790500
18.290500
17.937700
7.167750
14.143800
11.641100
12.121100
16.335700
16.960200
14.471500
15.827700
1.773250
0.944863
1.399540
1.656930
1.662930
9.068040
13.381600
8.758810
10.919200
7.698460
2.354800
13.134300
17.569900
3.611240
10.924500
10.533100
4.363170
18.014500
2.397380
7.684960
14.274300
4.425450
0.434917
1.018980
1.377590
1.313340
1.221310
11.342300
7.272030
10.039800
10.139900
11.907400
11.469700
13.534400
12.046400
11.877400
11.878300
5.433530
11.905600
13.649700
16.300700
15.446700
12.201900
15.028300
0.313204
1.215710
0.654444
0.856895
0.914695
4.042380
25.114000
7.580120
24.465400
18.881600
15.742500
10.711800
21.701500
26.497000
24.041400
26.730600
5.357190
20.665700
10.190600
16.714100
1.885250
24.067300
0.938805
0.671051
0.416714
1.000120
0.296158
0.021175
4.470090
7.547040
2.209470
2.796820
6.304250
4.427280
3.890400
2.163710
3.640140
2.121110
2.589450
1.609490
1.599540
3.119730
2.471960
1.550210
2.242810
1.576910
1.803830
1.758890
6.312320
6.800380
4.799550
6.047320
5.050500
5.155220
4.420240
5.277150
6.449180
3.565930
1.781270
4.319940
6.346140
2.408970
1.292790
1.685060
4.918240
3.377190
5.891300
5.641580
6.126730
2.776730
2.900840
1.740200
2.789280
1.636210
2.718120
2.043250
2.728320
2.516900
3.367590
3.635910
3.165030
0.878120
2.160730
1.405930
1.311620
2.204610
1.836910
1.750610
1.989230
1.277410
1.757020
3.077290
1.754340
2.013190
2.075740
2.277050
2.059070
3.524970
2.580470
2.443790
3.183150
2.549910
3.079700
2.969080
1.990140
0.966377
4.882600
3.767640
4.142820
4.184200
3.256020
4.299250
4.308790
4.679860
2.042610
5.254570
3.642780
4.468120
4.901280
2.427820
4.648980
3.596420
4.655040
3.602590
4.427540
3.938270
4.138150
3.054760
4.873780
4.130180
4.578190
3.742450
4.451500
3.629150
3.273070
1.329760
2.623670
3.574760
8.906800
9.056600
3.967820
5.413110
4.277530
6.664830
5.580090
7.625030
10.847400
10.180500
10.578200
7.879430
9.076330
7.677040
6.311460
6.755490
7.317240
10.344800
3.397570
3.914150
3.460120
4.661860
2.200310
2.138860
4.518250
5.839850
6.683520
7.619750
8.571770
2.433530
2.774090
0.001447
0.000785
6.434750
5.343890
4.605610
5.112750
4.944560
6.819870
1.957140
0.002559
0.004887
2.177050
6.453350
3.092570
0.001374
7.117660
0.002531
0.979939
1.109410
3.670870
2.292420
1.787420
0.004356
1.105540
3.703040
7.026410
2.982440
0.008830
3.625960
7.159900
1.538140
0.001407
2.530000
0.002152
1.047670
2.478550
0.681913
0.342903
6.874740
0.003814
3.383900
4.078500
0.007938
7.558630
3.426300
0.001423
0.960727
2.336660
2.461790
0.001923
0.906656
1.287840
0.003796
0.336801
4.027600
6.999630
0.007732
3.244020
0.001375
0.001957
7.407710
3.612700
2.892070
3.792120
1.589560
4.561780
5.041860
0.001408
0.007598
6.725490
0.003703
3.281650
1.052830
3.660620
3.450910
7.295020
2.754260
0.002368
0.001421
0.000942
6.616920
9.316890
8.752520
0.007506
6.160050
0.003680
3.357450
3.485610
1.180810
3.550970
6.835380
0.003699
0.000757
0.002271
0.003488
7.611450
9.667120
6.529790
0.007473
6.980930
11.463600
1.987710
3.144190
0.003664
2.554510
5.732700
6.242560
3.382320
4.610400
0.003557
0.002548
0.001045
4.181920
0.004501
0.007452
4.365080
8.349330
10.812100
0.001167
0.003664
4.517960
3.391450
2.184020
2.330250
5.458330
3.452440
10.527400
0.001949
0.004404
1.041850
4.490990
16.757700
11.461000
15.392800
0.007351
8.098500
4.098140
4.495460
0.003597
2.937410
1.458170
3.019280
3.079720
3.124160
4.570350
0.002084
10.541800
7.593330
7.547340
4.067210
7.119430
2.274390
3.815910
0.696436
0.007378
0.001408
3.720190
0.003492
1.408380
3.389410
5.711000
7.767000
5.425090
3.734200
5.474400
7.672780
7.701050
6.021590
2.710370
3.260170
1.315830
2.738680
0.710408
2.414710
1.670540
0.605450
3.154580
3.042800
0.001776
0.003769
3.882630
5.019720
7.619480
2.583570
5.214110
4.402140
7.527530
5.487590
5.503770
8.083230
6.093400
8.178630
8.920460
4.545830
1.017240
8.888460
8.323450
5.477800
8.247620
2.722010
8.498490
10.542500
4.602220
3.074730
9.395830
4.425860
8.185880
8.307470
9.809660
13.033200
3.149690
13.675800
5.945120
4.343320
4.154080
5.246340
3.319360
3.734060
0.856815
4.627230
3.947360
4.603400
3.899870
2.781830
3.006740
2.913300
4.267720
4.675070
5.935950
5.017100
4.040250
3.907710
4.121100
2.061750
2.443600
0.005086
1.212960
4.188250
3.484250
2.492020
9.686400
11.189900
12.140200
7.334730
10.808700
6.602250
7.782230
1.259820
4.684360
2.252000
5.094210
5.940790
2.855800
2.156060
3.630180
3.902910
3.611490
1.619150
2.067970
3.897910
1.598440
4.605160
1.356200
2.802510
4.890640
2.770150
2.759210
5.574870
8.303520
2.487820
5.293800
4.415360
3.724690
3.249390
5.713990
8.298680
7.978670
3.377820
3.060610
4.553200
4.010400
4.975440
4.119700
6.060500
4.355560
4.274090
3.016470
4.677160
4.006200
2.057760
4.680290
2.573360
4.985980
4.434090
4.996870
2.409000
2.544350
1.266370
2.325240
3.520440
2.138420
5.842040
2.040330
4.780390
4.682140
1.197690
4.181570
2.879870
1.922970
3.586420
2.523240
1.557720
2.020460
3.591970
3.000860
1.711160
1.968130
4.621230
2.637740
1.521520
2.539250
1.657430
2.964000
1.667950
2.414860
2.933920
1.813660
2.134580
1.128190
3.416910
1.673950
2.310970
3.303880
3.479780
2.394530
1.295090
1.815600
1.369480
2.080340
2.537870
1.392690
1.406370
1.802720
2.469870
2.076600
1.810580
2.369780
1.678770
1.900790
0.998914
1.475360
1.973890
0.903423
0.605105
1.910600
0.845759
0.889691
0.883188
0.905181
0.373196
1.175920
1.951130
1.196700
1.233550
1.085850
0.819774
0.684545
1.342290
2.321430
0.878703
2.058420
2.285130
2.026200
1.447040
0.503179
0.450832
1.099530
1.530250
0.645330
2.728080
3.748170
8.032830
0.918211
1.099130
0.879374
1.749180
2.294210
3.691520
2.065420
4.539150
4.207800
0.003645
2.845970
0.003215
0.004119
6.947340
8.529310
4.204120
4.676970
5.497990
0.003762
0.004245
2.367870
0.003664
3.783980
3.936960
3.340430
7.294390
5.041130
2.772790
0.004427
2.034760
0.004452
0.003719
4.210790
3.417780
3.285970
6.059580
0.803411
0.981049
0.005245
2.387390
1.638550
0.003791
0.004668
5.055060
2.782020
2.786040
3.650160
0.003875
0.004945
1.628920
0.006137
1.423830
3.960200
2.431540
3.096940
2.461570
1.110950
1.371930
0.003928
0.007142
0.005256
3.347960
1.901060
2.149020
2.435050
0.008200
0.003935
0.005532
1.677800
2.261650
2.090730
1.710540
0.009388
0.005771
0.574504
0.891563
0.003837
1.313970
1.426300
1.426710
2.239370
0.864140
1.464330
1.090490
1.001070
0.522625
1.025770
1.106030
2.311430
11.898400
7.815550
6.604060
15.088100
9.810830
4.336530
0.004180
0.002471
7.712210
4.175810
14.071100
6.877090
8.247220
12.235300
0.002555
5.855200
3.876230
0.003750
9.487220
6.229820
7.006820
11.434400
5.156210
3.235400
5.593830
0.002787
0.004060
0.003666
9.034010
6.651940
10.172700
5.258980
3.817100
5.828300
11.147300
11.406600
11.811900
7.649920
11.734100
12.071700
9.610470
10.205500
12.372700
12.983600
14.627900
12.987000
14.722800
14.020000
13.531400
15.437600
14.004400
14.394200
12.496900
13.493800
2.173600
13.568400
14.367200
8.429510
5.399180
3.306780
15.031300
15.700700
11.242700
7.066120
7.388600
5.709900
6.163760
6.519680
6.675010
6.644510
6.379510
6.248400
6.132800
5.782890
6.642330
7.747090
7.283340
8.337260
7.718360
7.822960
6.915890
6.984360
7.537360
7.201460
7.493270
7.789270
8.834250
10.326000
3.630660
9.009720
9.460290
7.019200
9.722960
7.783820
16.342300
6.070910
15.800900
14.613800
16.232100
8.262670
7.459060
1.010470
1.229150
1.363420
1.104550
3.011070
1.508790
2.132540
0.837839
0.678242
4.964580
1.166670
0.882017
0.986535
1.324090
1.235910
0.752565
1.100260
0.671374
1.404760
2.363890
1.401120
3.124390
9.914610
6.120650
7.948620
10.436600
11.225600
11.677000
5.693940
8.588160
4.000000
2.256490
5.523600
5.920170
5.276990
4.967370
5.384230
5.823160
5.548610
5.775000
5.666380
5.765260
5.877750
6.035420
6.479920
5.782640
4.334530
6.204030
6.252550
6.456290
6.555700
2.292940
6.002720
13.216700
12.007500
11.894100
7.273750
11.084300
10.118700
10.710700
8.230140
10.264900
5.625770
4.054260
10.812000
11.747900
11.449300
11.708400
12.075400
11.182100
12.415000
11.287400
12.067300
12.358700
12.839600
13.169000
12.771000
12.581700
12.739500
13.984200
7.447610
13.749400
6.007130
13.608500
11.497400
11.711600
15.384700
12.102000
18.600400
16.807600
17.567400
15.845500
18.042200
18.204000
18.741900
19.161600
17.477100
16.872500
18.945600
19.720300
19.454100
22.025600
22.203900
20.224200
20.636300
19.433100
11.026300
8.284310
19.174800
12.036400
17.024700
8.246930
12.438800
0.001942
6.187160
0.003228
8.641360
18.933200
5.909200
11.340800
17.800800
0.002948
10.475400
0.005132
7.539720
9.658800
7.172690
16.321100
17.678000
11.370400
4.960280
7.463080
0.002523
0.004411
0.003152
0.004827
0.004233
0.003911
0.005682
0.005756
0.003963
0.011627
0.007123
0.153987
0.522537
0.309653
0.010450
0.319703
4.667190
6.226790
3.996190
2.795230
2.329790
1.395880
1.027830
0.488273
0.262613
0.316387
0.207427
0.076285
0.046768
0.016542
0.011943
0.089528
0.053344
0.030687
0.026562
0.010367
0.007615
0.024288
0.042249
0.021671
0.012355
0.008709
0.007101
0.025609
0.046596
0.032978
0.018795
0.013339
0.010946
0.030426
0.048092
0.039467
0.026519
0.018930
0.015150
0.030262
0.047359
0.042759
0.031382
0.023371
0.018906
0.032374
0.046488
0.043939
0.034286
0.026422
0.021884
0.032662
0.045247
0.044138
0.035759
0.028342
0.023926
0.033594
0.044105
0.043629
0.036269
0.029248
0.025015
0.033645
0.042756
0.042632
0.035953
0.029259
0.025149
0.033549
0.041183
0.041083
0.034890
0.028389
0.024333
0.032559
0.039080
0.038913
0.033036
0.026640
0.022549
0.030859
0.036275
0.035945
0.030352
0.023991
0.019789
0.027848
0.032460
0.032086
0.026806
0.020488
0.016081
0.023794
0.027645
0.027329
0.022578
0.016361
0.011632
0.018959
0.022296
0.022275
0.018308
0.012451
0.007346
0.016387
0.018791
0.018811
0.015784
0.011027
0.006899
0.020492
0.021115
0.020006
0.017373
0.014057
0.011738
0.028897
0.028561
0.025940
0.022517
0.019645
0.017956
0.038366
0.037413
0.033362
0.028696
0.025582
0.023904
0.045890
0.044792
0.039774
0.034205
0.030677
0.028912
0.049881
0.049327
0.044229
0.038077
0.034429
0.032614
0.051300
0.051073
0.046180
0.040191
0.036626
0.034914
0.049746
0.050206
0.046066
0.040599
0.037406
0.035881
0.046400
0.047510
0.044364
0.039690
0.037000
0.035736
0.042253
0.043817
0.041613
0.037889
0.035731
0.034755
0.037718
0.039702
0.038418
0.035547
0.033934
0.033221
0.033492
0.035685
0.035114
0.033038
0.031876
0.031402
0.029699
0.032043
0.032046
0.030580
0.029799
0.029509
0.026619
0.028994
0.029372
0.028373
0.027859
0.027709
0.024238
0.026606
0.027221
0.026509
0.026170
0.026106
0.022580
0.024893
0.025609
0.025039
0.024781
0.024761
0.021546
0.023787
0.024501
0.023956
0.023705
0.023693
0.020965
0.023154
0.023824
0.023213
0.022924
0.022897
0.020740
0.022887
0.023471
0.022760
0.022403
0.022351
0.020701
0.022862
0.023380
0.022540
0.022112
0.022029
0.020854
0.023050
0.023494
0.022524
0.022021
0.021907
0.021163
0.023433
0.023806
0.022692
0.022113
0.021968
0.021680
0.024038
0.024321
0.023038
0.022374
0.022193
0.022459
0.024903
0.025049
0.023560
0.022790
0.022563
0.023529
0.026056
0.026007
0.024246
0.023343
0.023053
0.024958
0.027523
0.027181
0.025078
0.023995
0.023622
0.026723
0.029288
0.028551
0.026003
0.024694
0.024208
0.028849
0.031307
0.030028
0.026952
0.025354
0.024728
0.031165
0.033446
0.031506
0.027788
0.025863
0.025061
0.033570
0.035487
0.032731
0.028361
0.026057
0.025064
0.035528
0.037032
0.033468
0.028422
0.025764
0.024563
0.036676
0.037634
0.033272
0.027751
0.024786
0.023384
0.036361
0.036713
0.031813
0.026130
0.022964
0.021383
0.033645
0.033745
0.028873
0.023453
0.020276
0.018486
0.029173
0.028903
0.024467
0.020066
0.016893
0.014773
0.022750
0.022658
0.019651
0.016800
0.013525
0.010534
0.016529
0.017145
0.016480
0.015478
0.011513
0.006582
0.015032
0.016045
0.017302
0.017177
0.012185
0.005063
0.017808
0.019046
0.020977
0.020704
0.014742
0.007058
0.021793
0.022956
0.024924
0.024231
0.017409
0.009575
0.023264
0.024486
0.026740
0.026548
0.019115
0.011067
0.022671
0.023699
0.026674
0.027150
0.019150
0.011187
0.017236
0.018126
0.022410
0.025758
0.017387
0.009918
0.018930
0.017024
0.018886
0.023395
0.013577
0.008090
0.052175
0.052613
0.047911
0.032465
0.015330
0.006183
0.121804
0.120764
0.127736
0.090907
0.022753
0.009802
0.349386
0.243885
0.081701
0.044902
0.021105
0.011206
0.205074
0.135705
0.062100
0.032237
0.017367
0.009173
0.092385
0.076648
0.046336
0.026398
0.017289
0.012906
0.038825
0.055056
0.041105
0.026206
0.018870
0.015547
0.025531
0.047395
0.040181
0.027534
0.019984
0.016087
0.020149
0.043150
0.039840
0.028692
0.020426
0.015596
0.019506
0.040487
0.039236
0.029252
0.020557
0.014919
0.020533
0.038508
0.038346
0.029331
0.020494
0.014384
0.036835
0.037274
0.029017
0.020249
0.013915
0.022179
0.035399
0.036029
0.028385
0.019759
0.013340
0.022609
0.033985
0.034627
0.027451
0.019007
0.012543
0.023348
0.032648
0.033039
0.026263
0.018031
0.011565
0.023913
0.031330
0.031337
0.024910
0.017001
0.010678
0.025619
0.030459
0.029665
0.023619
0.016247
0.010428
0.028294
0.030395
0.028467
0.022765
0.016222
0.011400
0.033062
0.032067
0.028348
0.022810
0.017312
0.013651
0.039215
0.035567
0.029726
0.024088
0.019391
0.016672
0.044803
0.039956
0.032574
0.026205
0.022020
0.019798
0.049632
0.044123
0.035528
0.028650
0.024587
0.022581
0.049940
0.046076
0.037974
0.030741
0.026716
0.024818
0.048582
0.046563
0.039552
0.032195
0.028364
0.026500
0.046850
0.046291
0.040086
0.033231
0.029507
0.027760
0.044098
0.045131
0.040177
0.033674
0.030282
0.028641
0.041854
0.043533
0.039508
0.033674
0.030605
0.029155
0.039671
0.041448
0.038122
0.033145
0.030480
0.029251
0.036743
0.038707
0.036259
0.032090
0.029917
0.028923
0.033766
0.035678
0.033935
0.030685
0.028965
0.028222
0.030479
0.032488
0.031486
0.029024
0.027761
0.027236
0.027425
0.029469
0.029052
0.027314
0.026422
0.026089
0.024632
0.026780
0.026881
0.025679
0.025089
0.024898
0.022437
0.024640
0.025078
0.024254
0.023856
0.023763
0.020911
0.023124
0.023730
0.023097
0.022797
0.022755
0.019991
0.022181
0.022832
0.022225
0.021944
0.021913
0.019597
0.021720
0.022285
0.021618
0.021294
0.021252
0.019393
0.021514
0.022017
0.021219
0.020836
0.020768
0.019386
0.021510
0.021921
0.021001
0.020544
0.020451
0.019420
0.021625
0.021988
0.020930
0.020408
0.020287
0.019606
0.021901
0.022205
0.021006
0.020411
0.020263
0.019969
0.022374
0.022591
0.021221
0.020543
0.020363
0.020558
0.023075
0.023164
0.021571
0.020790
0.020567
0.021435
0.024043
0.023921
0.022045
0.021129
0.020849
0.022574
0.025276
0.024866
0.022616
0.021528
0.021170
0.024022
0.026771
0.025955
0.023249
0.021939
0.021482
0.025654
0.028465
0.027154
0.023876
0.022307
0.021724
0.027516
0.030293
0.028342
0.024438
0.022559
0.021833
0.029334
0.032092
0.029450
0.024826
0.022638
0.021745
0.031302
0.033773
0.030256
0.024997
0.022477
0.021417
0.033048
0.035089
0.030767
0.024876
0.022062
0.020831
0.034935
0.036113
0.030845
0.024477
0.021416
0.019987
0.037529
0.036922
0.030433
0.023947
0.020545
0.018898
0.039121
0.036962
0.029849
0.023218
0.019541
0.017506
0.039816
0.036190
0.028649
0.022545
0.018334
0.015732
0.038981
0.034196
0.027078
0.021886
0.017052
0.013428
0.033828
0.030113
0.025395
0.021514
0.015843
0.010596
0.027703
0.025707
0.024073
0.021834
0.015135
0.007509
0.019518
0.021093
0.023521
0.022861
0.015386
0.005406
0.011951
0.018017
0.023899
0.024585
0.016740
0.006734
0.010510
0.018302
0.025435
0.027052
0.018998
0.010561
0.024625
0.026760
0.029975
0.030707
0.021944
0.014458
0.053955
0.052797
0.047492
0.039623
0.025076
0.016095
0.102468
0.099924
0.090365
0.061224
0.027642
0.013406
0.129640
0.126948
0.130812
0.101175
0.026233
0.011145
0.294189
0.235249
0.085712
0.046790
0.022461
0.013457
0.198956
0.147442
0.081688
0.041155
0.025183
0.014470
0.138422
0.107792
0.065230
0.040409
0.026862
0.020456
0.077536
0.075615
0.055544
0.037985
0.028276
0.023361
0.044010
0.058193
0.049054
0.035781
0.027502
0.023166
0.030049
0.048499
0.044457
0.033474
0.025422
0.020837
0.021120
0.042217
0.041046
0.031231
0.022799
0.017470
0.017136
0.038062
0.038292
0.029205
0.020196
0.013792
0.015339
0.035065
0.036045
0.027460
0.017938
0.010222
0.015131
0.032931
0.034203
0.026045
0.016221
0.007103
0.016356
0.031512
0.032758
0.025011
0.015218
0.005242
0.018454
0.030834
0.031770
0.024452
0.015126
0.006037
0.022442
0.031213
0.031377
0.024514
0.016079
0.008980
0.027622
0.032900
0.031848
0.025343
0.018051
0.012785
0.035428
0.036569
0.033411
0.027018
0.020798
0.016852
0.044647
0.042066
0.036202
0.029427
0.023867
0.020772
0.054736
0.048993
0.040026
0.032030
0.026807
0.024089
0.063828
0.055664
0.043583
0.034419
0.028966
0.026437
0.066377
0.058883
0.046120
0.035557
0.030045
0.027554
0.064971
0.058396
0.045868
0.035194
0.029950
0.027519
0.058731
0.054664
0.043574
0.033867
0.028970
0.026765
0.049651
0.049320
0.041180
0.032001
0.027846
0.025782
0.043908
0.045071
0.038558
0.030592
0.026842
0.025039
0.039714
0.041665
0.036361
0.029485
0.026203
0.024627
0.036095
0.038519
0.034528
0.028544
0.025766
0.024437
0.033562
0.035682
0.032510
0.027660
0.025311
0.024261
0.030665
0.032719
0.030453
0.026570
0.024737
0.023935
0.027871
0.029752
0.028216
0.025348
0.023969
0.023413
0.024754
0.026748
0.026042
0.024015
0.023072
0.022717
0.021943
0.024066
0.024026
0.022733
0.022117
0.021924
0.019589
0.021904
0.022394
0.021590
0.021204
0.021116
0.018059