# vtk DataFile Version 2.0
test
ASCII
DATASET UNSTRUCTURED_GRID
POINTS 41454 float
0.750000 -0.500000 0.050000
0.750000 0.445000 0.050000
0.773205 -0.509913 0.050000
0.780683 -0.495923 0.050000
0.794960 -0.479679 0.050000
0.800692 -0.462863 0.050000
0.806451 -0.444969 0.050000
0.809882 -0.427656 0.050000
0.812798 -0.409843 0.050000
0.814654 -0.392283 0.050000
0.815918 -0.374477 0.050000
0.816430 -0.356792 0.050000
0.816310 -0.338991 0.050000
0.815501 -0.321320 0.050000
0.814020 -0.303654 0.050000
0.811857 -0.286231 0.050000
0.809021 -0.268996 0.050000
0.805596 -0.252235 0.050000
0.801698 -0.235903 0.050000
0.797579 -0.220277 0.050000
0.793562 -0.205175 0.050000
0.789843 -0.190539 0.050000
0.786757 -0.176261 0.050000
0.784226 -0.161900 0.050000
0.782295 -0.147638 0.050000
0.780856 -0.133085 0.050000
0.779753 -0.118389 0.050000
0.778888 -0.103446 0.050000
0.778149 -0.088341 0.050000
0.777477 -0.073081 0.050000
0.776825 -0.057721 0.050000
0.776174 -0.042285 0.050000
0.775509 -0.026802 0.050000
0.774826 -0.011288 0.050000
0.774124 0.004240 0.050000
0.773401 0.019774 0.050000
0.772659 0.035302 0.050000
0.771898 0.050818 0.050000
0.771121 0.066308 0.050000
0.770331 0.081767 0.050000
0.769534 0.097176 0.050000
0.768736 0.112527 0.050000
0.767955 0.127791 0.050000
0.767208 0.142958 0.050000
0.766529 0.157987 0.050000
0.765967 0.172864 0.050000
0.765579 0.187558 0.050000
0.765464 0.202045 0.050000
0.765694 0.216364 0.050000
0.766395 0.230486 0.050000
0.767660 0.244538 0.050000
0.769530 0.258659 0.050000
0.771947 0.272954 0.050000
0.774846 0.287687 0.050000
0.777871 0.303104 0.050000
0.780611 0.319233 0.050000
0.782693 0.336121 0.050000
0.783627 0.353549 0.050000
0.783365 0.371167 0.050000
0.781318 0.388967 0.050000
0.777954 0.406049 0.050000
0.771425 0.422854 0.050000
0.765219 0.436706 0.050000
-0.750000 0.445000 0.050000
0.733871 0.445000 0.050000
0.717742 0.445000 0.050000
0.701613 0.445000 0.050000
0.685484 0.445000 0.050000
0.669355 0.445000 0.050000
0.653226 0.445000 0.050000
0.637097 0.445000 0.050000
0.620968 0.445000 0.050000
0.604839 0.445000 0.050000
0.588710 0.445000 0.050000
0.572581 0.445000 0.050000
0.556452 0.445000 0.050000
0.540323 0.445000 0.050000
0.524194 0.445000 0.050000
0.508065 0.445000 0.050000
0.491935 0.445000 0.050000
0.475807 0.445000 0.050000
0.459677 0.445000 0.050000
0.443548 0.445000 0.050000
0.427419 0.445000 0.050000
0.411290 0.445000 0.050000
0.395161 0.445000 0.050000
0.379032 0.445000 0.050000
0.362903 0.445000 0.050000
0.346774 0.445000 0.050000
0.330645 0.445000 0.050000
0.314516 0.445000 0.050000
0.298387 0.445000 0.050000
0.282258 0.445000 0.050000
0.266129 0.445000 0.050000
0.250000 0.445000 0.050000
0.233871 0.445000 0.050000
0.217742 0.445000 0.050000
0.201613 0.445000 0.050000
0.185484 0.445000 0.050000
0.169355 0.445000 0.050000
0.153226 0.445000 0.050000
0.137097 0.445000 0.050000
0.120968 0.445000 0.050000
0.104839 0.445000 0.050000
0.088710 0.445000 0.050000
0.072581 0.445000 0.050000
0.056452 0.445000 0.050000
0.040323 0.445000 0.050000
0.024194 0.445000 0.050000
0.008065 0.445000 0.050000
-0.008065 0.445000 0.050000
-0.024194 0.445000 0.050000
-0.040323 0.445000 0.050000
-0.056452 0.445000 0.050000
-0.072581 0.445000 0.050000
-0.088710 0.445000 0.050000
-0.104839 0.445000 0.050000
-0.120968 0.445000 0.050000
-0.137097 0.445000 0.050000
-0.153226 0.445000 0.050000
-0.169355 0.445000 0.050000
-0.185484 0.445000 0.050000
-0.201613 0.445000 0.050000
-0.217742 0.445000 0.050000
-0.233871 0.445000 0.050000
-0.250000 0.445000 0.050000
-0.266129 0.445000 0.050000
-0.282258 0.445000 0.050000
-0.298387 0.445000 0.050000
-0.314516 0.445000 0.050000
-0.330645 0.445000 0.050000
-0.346774 0.445000 0.050000
-0.362903 0.445000 0.050000
-0.379032 0.445000 0.050000
-0.395161 0.445000 0.050000
-0.411290 0.445000 0.050000
-0.427419 0.445000 0.050000
-0.443548 0.445000 0.050000
-0.459677 0.445000 0.050000
-0.475807 0.445000 0.050000
-0.491935 0.445000 0.050000
-0.508065 0.445000 0.050000
-0.524194 0.445000 0.050000
-0.540323 0.445000 0.050000
-0.556452 0.445000 0.050000
-0.572581 0.445000 0.050000
-0.588710 0.445000 0.050000
-0.604839 0.445000 0.050000
-0.620968 0.445000 0.050000
-0.637097 0.445000 0.050000
-0.653226 0.445000 0.050000
-0.669355 0.445000 0.050000
-0.685484 0.445000 0.050000
-0.701613 0.445000 0.050000
-0.717742 0.445000 0.050000
-0.733871 0.445000 0.050000
-0.750000 -0.500000 0.050000
-0.763710 0.435319 0.050000
-0.769557 0.421365 0.050000
-0.775687 0.404463 0.050000
-0.779015 0.387411 0.050000
-0.781156 0.369530 0.050000
-0.781686 0.351954 0.050000
-0.781154 0.334359 0.050000
-0.779621 0.317400 0.050000
-0.777484 0.300828 0.050000
-0.774971 0.285014 0.050000
-0.772479 0.269663 0.050000
-0.770130 0.254753 0.050000
-0.768173 0.240161 0.050000
-0.766608 0.225629 0.050000
-0.765453 0.211183 0.050000
-0.764675 0.196643 0.050000
-0.764197 0.182025 0.050000
-0.763957 0.167279 0.050000
-0.763896 0.152428 0.050000
-0.763965 0.137467 0.050000
-0.764129 0.122426 0.050000
-0.764360 0.107310 0.050000
-0.764643 0.092148 0.050000
-0.764965 0.076940 0.050000
-0.765320 0.061714 0.050000
-0.765703 0.046458 0.050000
-0.766108 0.031206 0.050000
-0.766530 0.015936 0.050000
-0.766959 0.000685 0.050000
-0.767392 -0.014558 0.050000
-0.767819 -0.029753 0.050000
-0.768250 -0.044887 0.050000
-0.768696 -0.059918 0.050000
-0.769193 -0.074816 0.050000
-0.769791 -0.089541 0.050000
-0.770561 -0.104068 0.050000
-0.771598 -0.118365 0.050000
-0.773000 -0.132459 0.050000
-0.774903 -0.146306 0.050000
-0.777389 -0.160130 0.050000
-0.780507 -0.173784 0.050000
-0.784339 -0.187697 0.050000
-0.788671 -0.201855 0.050000
-0.793443 -0.216487 0.050000
-0.798343 -0.231801 0.050000
-0.803086 -0.247739 0.050000
-0.807465 -0.264358 0.050000
-0.811256 -0.281475 0.050000
-0.814391 -0.299032 0.050000
-0.816757 -0.316902 0.050000
-0.818372 -0.334972 0.050000
-0.819142 -0.353234 0.050000
-0.819155 -0.371493 0.050000
-0.818205 -0.389930 0.050000
-0.816531 -0.408143 0.050000
-0.813497 -0.426672 0.050000
-0.809881 -0.444615 0.050000
-0.803385 -0.463171 0.050000
-0.797154 -0.480446 0.050000
-0.781351 -0.496687 0.050000
-0.773517 -0.511278 0.050000
-0.733871 -0.500000 0.050000
-0.717742 -0.500000 0.050000
-0.701613 -0.500000 0.050000
-0.685484 -0.500000 0.050000
-0.669355 -0.500000 0.050000
-0.653226 -0.500000 0.050000
-0.637097 -0.500000 0.050000
-0.620968 -0.500000 0.050000
-0.604839 -0.500000 0.050000
-0.588710 -0.500000 0.050000
-0.572581 -0.500000 0.050000
-0.556452 -0.500000 0.050000
-0.540323 -0.500000 0.050000
-0.524194 -0.500000 0.050000
-0.508065 -0.500000 0.050000
-0.491935 -0.500000 0.050000
-0.475807 -0.500000 0.050000
-0.459677 -0.500000 0.050000
-0.443548 -0.500000 0.050000
-0.427419 -0.500000 0.050000
-0.411290 -0.500000 0.050000
-0.395161 -0.500000 0.050000
-0.379032 -0.500000 0.050000
-0.362903 -0.500000 0.050000
-0.346774 -0.500000 0.050000
-0.330645 -0.500000 0.050000
-0.314516 -0.500000 0.050000
-0.298387 -0.500000 0.050000
-0.282258 -0.500000 0.050000
-0.266129 -0.500000 0.050000
-0.250000 -0.500000 0.050000
-0.233871 -0.500000 0.050000
-0.217742 -0.500000 0.050000
-0.201613 -0.500000 0.050000
-0.185484 -0.500000 0.050000
-0.169355 -0.500000 0.050000
-0.153226 -0.500000 0.050000
-0.137097 -0.500000 0.050000
-0.120968 -0.500000 0.050000
-0.104839 -0.500000 0.050000
-0.088710 -0.500000 0.050000
-0.072581 -0.500000 0.050000
-0.056452 -0.500000 0.050000
-0.040323 -0.500000 0.050000
-0.024194 -0.500000 0.050000
-0.008065 -0.500000 0.050000
0.008065 -0.500000 0.050000
0.024194 -0.500000 0.050000
0.040323 -0.500000 0.050000
0.056452 -0.500000 0.050000
0.072581 -0.500000 0.050000
0.088710 -0.500000 0.050000
0.104839 -0.500000 0.050000
0.120968 -0.500000 0.050000
0.137097 -0.500000 0.050000
0.153226 -0.500000 0.050000
0.169355 -0.500000 0.050000
0.185484 -0.500000 0.050000
0.201613 -0.500000 0.050000
0.217742 -0.500000 0.050000
0.233871 -0.500000 0.050000
0.250000 -0.500000 0.050000
0.266129 -0.500000 0.050000
0.282258 -0.500000 0.050000
0.298387 -0.500000 0.050000
0.314516 -0.500000 0.050000
0.330645 -0.500000 0.050000
0.346774 -0.500000 0.050000
0.362903 -0.500000 0.050000
0.379032 -0.500000 0.050000
0.395161 -0.500000 0.050000
0.411290 -0.500000 0.050000
0.427419 -0.500000 0.050000
0.443548 -0.500000 0.050000
0.459677 -0.500000 0.050000
0.475807 -0.500000 0.050000
0.491935 -0.500000 0.050000
0.508065 -0.500000 0.050000
0.524194 -0.500000 0.050000
0.540323 -0.500000 0.050000
0.556452 -0.500000 0.050000
0.572581 -0.500000 0.050000
0.588710 -0.500000 0.050000
0.604839 -0.500000 0.050000
0.620968 -0.500000 0.050000
0.637097 -0.500000 0.050000
0.653226 -0.500000 0.050000
0.669355 -0.500000 0.050000
0.685484 -0.500000 0.050000
0.701613 -0.500000 0.050000
0.717742 -0.500000 0.050000
0.733871 -0.500000 0.050000
0.760257 -0.487562 0.050000
0.773227 -0.484958 0.050000
0.780555 -0.472150 0.050000
0.787567 -0.457189 0.050000
0.791703 -0.441154 0.050000
0.795459 -0.424484 0.050000
0.797920 -0.407743 0.050000
0.799871 -0.390669 0.050000
0.801003 -0.373616 0.050000
0.801552 -0.356390 0.050000
0.801401 -0.339225 0.050000
0.800604 -0.321999 0.050000
0.799105 -0.304924 0.050000
0.796897 -0.287916 0.050000
0.793956 -0.271225 0.050000
0.790316 -0.254784 0.050000
0.786074 -0.238899 0.050000
0.781486 -0.223402 0.050000
0.776888 -0.208453 0.050000
0.772788 -0.193785 0.050000
0.769321 -0.179097 0.050000
0.766682 -0.164574 0.050000
0.764767 -0.149740 0.050000
0.763426 -0.134882 0.050000
0.762483 -0.119821 0.050000
0.761767 -0.104661 0.050000
0.761163 -0.089373 0.050000
0.760590 -0.074010 0.050000
0.760013 -0.058578 0.050000
0.759411 -0.043103 0.050000
0.758780 -0.027596 0.050000
0.758117 -0.012071 0.050000
0.757424 0.003465 0.050000
0.756701 0.019002 0.050000
0.755950 0.034534 0.050000
0.755172 0.050053 0.050000
0.754368 0.065554 0.050000
0.753540 0.081024 0.050000
0.752689 0.096462 0.050000
0.751824 0.111847 0.050000
0.750952 0.127179 0.050000
0.750091 0.142430 0.050000
0.749269 0.157602 0.050000
0.748534 0.172661 0.050000
[...]
CELL_DATA 34596
SCALARS Mises_Stress_Abs(MPa) float 1
LOOKUP_TABLE default
70.393400
74.246900
52.616300
63.420100
68.669100
63.962000
69.606400
67.498300
46.509200
71.120900
18.284100
61.045200
33.781800
8.348030
2.841500
1.443270
1.155690
0.484683
25.851900
0.260719
3.060840
12.608500
38.476000
2.329740
1.781500
1.781310
0.903470
0.453389
38.208500
21.912000
33.942000
10.863400
15.070300
17.612400
27.036000
31.144400
24.483600
16.532600
26.623700
17.731500
28.016300
32.946300
37.334500
41.174700
19.170900
27.571500
1.927120
2.462050
1.688930
1.826080
0.888650
33.132700
38.343100
32.395800
25.445100
20.352400
34.350800
40.438300
34.782100
36.789300
36.811000
33.521900
35.589400
11.401200
32.343700
36.668600
11.495000
28.990100
23.693800
1.342730
2.275290
2.497980
2.364760
1.923450
33.142600
23.445900
39.561500
77.864400
25.358900
24.667100
84.639200
80.798900
25.934800
36.361200
90.850800
27.995600
23.314200
84.757600
86.414400
43.160700
85.742900
83.441900
2.329160
3.081980
2.350400
2.795450
2.601480
17.668600
20.830600
31.797200
27.823500
41.449700
47.925100
21.866000
20.452600
32.693600
18.858300
3.130230
3.547070
2.883800
2.993840
19.637800
15.487900
14.348500
6.344930
8.197700
27.379100
17.019200
22.945000
2.712160
29.020300
25.741900
33.227400
21.616800
30.656500
18.431000
13.542400
4.069320
3.235920
3.184900
3.734650
4.175570
15.028600
19.168300
22.110900
20.293200
13.287000
19.893000
17.551000
17.337100
14.797200
17.378200
4.023220
4.928830
4.432430
3.798860
3.796770
15.824900
16.851100
12.408500
18.439800
16.487000
9.263770
13.300500
17.717300
23.294100
15.153900
4.361240
6.115590
3.918050
4.786160
5.231460
9.200040
14.149700
14.988600
16.520400
11.820200
4.359700
5.475270
6.319530
6.359280
4.827390
6.079940
16.270200
18.050200
15.710100
6.248590
11.361000
12.765400
11.277900
17.438000
8.488910
6.486420
5.984300
5.814410
8.446460
4.690950
12.292500
16.319600
18.354300
15.440200
10.833000
11.878300
9.448960
10.647600
7.922590
12.609600
6.514130
7.274790
7.752010
5.069510
16.279000
8.079630
14.009100
17.425000
16.046400
19.045000
9.569750
8.682670
12.165900
7.208100
9.139060
5.370640
7.702370
8.212750
8.986420
18.160800
11.173100
21.957000
19.713700
25.534800
16.803000
7.677370
8.627390
8.877410
6.775370
7.550850
8.904420
10.952400
9.731190
9.316000
8.967380
23.215900
23.609500
18.558300
21.227700
7.690090
6.277190
28.900300
7.047700
5.912920
7.081320
19.195300
11.927800
8.759480
16.908200
12.860500
37.174200
21.581300
20.787600
35.031800
30.247400
5.737640
5.487820
5.161560
5.293690
6.322080
29.442700
13.209800
13.179700
13.813600
23.143700
37.778500
15.234900
25.194600
46.135500
26.648000
4.238160
5.169120
4.580540
4.232730
4.968310
32.134400
62.665800
18.682800
56.286200
63.769500
15.457100
18.203500
56.620300
57.526900
24.735900
21.763000
27.205100
66.916700
32.112200
63.771200
24.822000
36.006000
4.052690
3.459230
4.055230
4.145290
2.469910
18.125700
36.846500
32.350400
14.628400
20.220800
24.368000
30.997900
35.881600
35.214400
14.113000
27.697800
22.752100
23.706700
31.958700
33.194200
28.302600
30.971300
3.380100
1.803560
2.669510
3.180900
3.224480
17.803500
26.233100
17.119600
21.431000
15.038600
4.543690
25.763100
34.394300
7.081910
21.362400
20.600600
8.589600
35.279000
4.746160
15.015000
27.942400
8.691150
0.824004
1.945830
2.624170
2.540980
2.319130
22.234600
14.307400
19.716900
19.863200
23.357300
22.481400
26.558500
23.620500
23.326300
23.280100
10.620600
23.330600
26.760400
31.937100
30.260100
23.921600
29.430000
0.599322
2.336160
1.236640
1.633330
1.831340
7.936260
49.210500
14.925000
47.977400
37.062400
30.941500
21.043900
42.588900
51.946600
47.121400
52.392000
10.494700
40.542200
20.009800
32.792300
3.681980
47.187100
1.838800
1.306280
0.825669
1.974510
0.577870
0.055391
8.470740
14.211200
4.351290
5.056020
11.980700
8.527660
7.494350
4.204360
6.920860
4.099020
5.012720
3.239780
3.076390
6.002470
5.023240
2.933720
4.276820
2.887410
3.346850
3.236020
11.914900
12.843400
9.241430
11.434900
9.582280
9.873120
8.379560
9.971960
12.186100
6.757610
3.358220
8.227120
12.262900
4.524840
2.538390
3.337470
9.397890
6.414000
11.357400
10.913400
11.771500
5.489730
5.653000
3.403630
5.518810
3.364220
5.120690
3.852680
5.090310
4.692210
6.282400
6.782650
5.956050
1.578640
4.038010
2.783650
2.541300
4.080900
3.417490
3.258720
3.726320
2.498530
3.294170
5.978310
3.388180
3.897350
4.028270
4.437620
4.035740
6.838130
5.019930
4.740970
6.172930
4.925250
5.980950
5.783220
3.749340
1.897140
9.170220
7.148490
7.799870
7.912260
6.171900
8.163180
8.158530
8.867890
3.912270
10.025200
6.927880
8.470110
9.319120
4.726320
8.892090
6.840260
8.840170
6.977970
8.541580
7.581650
8.022440
5.904590
9.494150
8.006050
8.896530
7.250630
8.637240
7.024670
6.237950
2.567540
5.078450
6.808200
16.928800
17.187100
7.697310
10.290000
8.177150
12.738500
10.696700
14.516400
20.987900
19.709900
20.060300
15.141300
17.508400
14.688900
12.059800
12.868100
13.940600
19.606200
6.495260
7.520030
6.661870
8.909530
4.189380
4.085170
8.675230
11.237600
12.875800
14.681700
16.554500
4.816070
5.358070
0.002731
0.001481
12.025600
10.144300
8.695310
9.883120
9.423710
13.144800
3.781650
0.004990
0.009497
4.113030
12.361600
5.784830
0.002618
13.398800
0.004774
1.695940
2.148720
7.087090
4.525780
3.262290
0.008477
2.119130
7.249480
13.490300
5.643550
0.017150
6.844660
13.460500
2.993130
0.002756
5.001920
0.004094
2.051400
4.629290
1.437270
0.760304
13.129600
0.007386
6.466750
7.898260
0.015384
14.319400
6.413160
0.002815
1.923200
4.590280
4.918490
0.003684
1.640650
2.451760
0.007337
0.704169
7.851330
13.414700
0.014953
6.137970
0.002730
0.003783
13.983500
6.829650
5.667930
7.298690
3.075480
8.860920
9.858740
0.002723
0.014676
12.807800
0.007146
6.267180
2.092420
7.075610
6.463650
13.881000
5.158870
0.004628
0.002802
0.001818
12.673600
18.017500
16.931900
0.014485
11.768100
0.007098
6.366960
6.792980
2.301260
6.709630
12.950200
0.007175
0.001481
0.004430
0.006793
14.300100
18.574200
12.563200
0.014411
13.471500
22.141900
3.871750
5.998000
0.007061
4.925250
10.872200
11.914000
6.364630
8.916240
0.006982
0.005005
0.002031
8.084280
0.008753
0.014363
8.412520
16.143200
20.862300
0.002235
0.007055
8.575760
6.459400
4.203250
4.569470
10.393500
6.499500
20.254000
0.003848
0.008656
2.090090
8.457350
32.261100
22.065600
29.633600
0.014156
15.629800
7.724450
8.716650
0.006920
5.588660
2.821040
5.851220
6.059780
5.937880
8.723220
0.004110
20.298800
14.522100
14.515800
7.913810
13.728200
4.231750
7.322990
1.390490
0.014164
0.002705
7.161580
0.006691
2.693920
6.549900
10.997500
14.922600
10.602600
6.954110
10.666400
14.787000
14.877700
11.576100
5.407930
6.404130
2.466650
5.267040
1.365100
4.686030
2.908930
1.215420
5.988040
5.830260
0.003395
0.007213
7.431450
9.600850
14.679900
5.011440
10.059500
8.254910
14.608100
10.384100
10.621500
15.744600
11.764900
15.761600
17.214100
8.795230
1.969360
17.153300
16.066700
10.472100
15.946800
5.087190
16.393500
20.348300
8.773640
5.860810
18.080700
8.188330
15.836100
16.097200
18.657000
25.096700
6.054230
26.366600
11.401100
8.395930
8.023240
10.126700
6.420210
7.233770
1.677500
8.944130
7.609210
8.917420
7.517510
5.227540
5.756530
5.632550
8.267480
9.168760
11.467800
9.902350
8.043110
7.379100
7.891520
3.873800
4.854080
0.011248
2.324970
8.067060
6.713620
4.821020
18.251100
21.300300
23.245200
14.169900
20.590500
12.608400
14.687000
2.415570
9.066680
4.329000
9.758210
11.330300
5.761470
4.532760
7.056300
7.718260
7.112020
2.950140
3.774900
8.056880
3.293160
9.023850
2.468680
5.538410
9.448710
5.048260
5.827160
11.550500
16.211100
4.531300
10.268300
8.028720
7.641990
6.675560
11.845700
16.133700
15.661900
6.651540
5.581910
8.261050
8.169720
10.438900
7.774290
12.561700
9.246140
8.407680
6.216050
9.568060
7.210780
3.726850
8.447890
4.667160
9.082400
8.210310
10.300500
4.391020
5.323350
2.687860
4.912280
7.354480
4.008950
11.445900
4.169010
9.254160
9.326570
2.214540
7.590320
5.205690
3.447960
7.058030
4.966920
2.984890
4.336570
6.993880
6.264390
3.432570
4.084650
9.083250
5.212500
2.697040
4.587670
2.996650
5.418230
3.258930
5.143930
6.143590
3.827430
4.087790
2.111000
6.696860
3.045680
4.641030
6.466730
6.920840
4.339610
2.645450
3.247180
2.513800
4.405770
5.331670
2.967280
2.918920
3.628080
4.489560
4.322410
3.690800
4.886210
3.074860
3.461060
1.818520
2.680110
3.577910
1.693190
1.143680
3.885890
1.575660
1.795500
1.858310
1.718000
0.682471
2.190560
3.857330
2.578150
2.541220
2.106470
1.536430
1.214300
2.747930
4.734720
1.620200
4.008780
4.337590
4.020330
2.656990
0.971061
0.841703
1.924410
2.725850
1.142500
4.868860
6.754700
15.758300
1.786560
2.470050
1.870410
3.883340
5.039950
8.045000
4.364180
9.762180
7.885680
0.006844
5.366770
0.005590
0.007683
14.070400
16.934600
8.321140
9.433170
10.865000
0.006487
0.007893
4.445050
0.006891
7.097430
7.954540
6.664600
14.477300
9.962810
5.187090
0.008238
3.831480
0.007723
0.007022
8.353870
6.937680
6.528770
12.027300
1.482110
1.864980
0.009112
4.469270
3.064630
0.007229
0.008704
10.037800
5.605520
5.654770
7.210860
0.007467
0.009298
3.036590
0.010825
2.684890
7.827200
4.988680
6.180800
4.903330
2.065920
2.566380
0.007736
0.012644
0.009957
6.644550
3.863610
4.399050
4.785220
0.014866
0.007879
0.010699
3.507720
4.399300
4.218050
3.408400
0.017094
0.011261
1.063970
1.671620
0.007893
2.530720
3.021070
2.896410
4.446880
1.795410
3.005680
2.053330
2.145080
1.071870
2.055150
2.361560
4.653710
23.853800
15.639600
12.991900
29.850400
19.294000
8.161230
0.007943
0.004580
14.511800
8.233320
27.832400
13.760100
16.251900
24.501600
0.004614
10.990600
7.322190
0.007087
19.103800
12.508300
13.808500
22.673000
10.170200
6.083770
10.511800
0.004910
0.007607
0.006899
18.169700
13.131000
20.162000
10.574000
7.565580
10.950500
21.081400
21.537800
22.389300
14.350700
22.289000
22.982200
18.090900
19.224900
23.608800
24.886100
28.473500
24.947800
28.707900
27.174000
26.050800
30.155500
27.078000
27.948900
23.898600
26.038200
4.436190
26.732300
28.188800
16.647000
10.615600
6.522980
29.436400
30.862700
22.161300
13.347000
13.997900
10.785300
11.657000
12.294000
12.607200
12.720400
12.185000
11.901800
11.657700
10.958900
12.747000
15.184700
14.078400
16.363900
15.060400
15.350600
13.334500
13.436400
14.637700
13.948700
14.574700
15.201000
17.419100
20.307100
6.986800
17.677100
18.621200
13.931900
19.165500
14.721600
30.957500
11.477400
29.821900
27.699100
30.846800
15.651700
14.171200
2.084750
2.525290
2.766810
2.282730
5.779990
3.019520
4.094840
1.744590
1.434140
9.407680
2.421540
1.866740
2.074170
2.771280
2.575890
1.598280
2.288820
1.410210
2.955320
4.723900
2.942610
6.082980
19.457900
12.024700
15.637900
20.510000
22.091100
23.037200
10.794700
16.331100
7.679570
4.392460
10.615600
11.429500
10.085400
9.451320
10.320300
11.218000
10.627700
11.075600
10.918200
11.082000
11.384600
11.678600
12.602700
11.171100
8.388150
12.036200
12.187200
12.564300
12.870000
4.496550
11.657800
26.011000
23.659100
23.420000
14.265500
21.709500
19.134200
20.363700
15.503700
19.511600
10.709000
7.691080
20.614500
22.520100
21.881700
22.463500
23.220800
21.311400
23.951900
21.587500
23.225900
23.862100
25.033400
25.577200
24.721700
24.368500
24.751400
27.457100
14.634100
26.854800
11.914800
26.510500
22.597000
22.992600
30.309600
23.821300
35.809600
32.062700
33.626200
30.128500
34.613200
34.964800
36.121400
37.022800
33.416500
32.158700
36.974400
38.238900
37.743700
43.124200
43.603400
39.347500
40.270800
37.819900
21.704000
16.189500
37.080400
23.689900
33.505300
16.112200
23.424800
0.003697
11.699700
0.006176
16.911600
37.611700
11.500400
22.263300
35.135600
0.005634
19.722000
0.009834
14.199500
18.994100
14.008100
32.551100
34.886300
22.547200
9.382970
14.031000
0.004758
0.008442
0.006080
0.009228
0.008077
0.007432
0.008459
0.011649
0.007437
0.022315
0.011246
0.304650
0.977148
0.578984
0.019942
0.599602
9.519080
12.589600
8.131050
5.741400
4.782270
2.866490
2.135290
0.985295
0.539621
0.576146
0.382320
0.181077
0.105799
0.040036
0.024368
0.083739
0.035551
0.042529
0.058724
0.023653
0.017858
0.107089
0.073424
0.041238
0.030582
0.023640
0.018475
0.073008
0.080808
0.061586
0.041697
0.031542
0.026972
0.092838
0.092637
0.074282
0.054226
0.041872
0.035709
0.080566
0.091741
0.081041
0.062893
0.050038
0.043228
0.083996
0.091943
0.083785
0.068127
0.055750
0.048917
0.079689
0.089674
0.084530
0.070815
0.059238
0.052668
0.079868
0.087826
0.083758
0.071648
0.060779
0.054522
0.077312
0.085006
0.081927
0.070893
0.060585
0.054554
0.075663
0.081839
0.078958
0.068704
0.058732
0.052821
0.072081
0.077498
0.074781
0.065019
0.055233
0.049320
0.067692
0.071922
0.069099
0.059765
0.050039
0.044035
0.060943
0.064472
0.061734
0.052841
0.043180
0.036991
0.052330
0.055098
0.052558
0.044399
0.034843
0.028379
0.041629
0.044139
0.042242
0.035145
0.025896
0.018956
0.032259
0.034461
0.033182
0.027522
0.019199
0.012116
0.032504
0.033606
0.031593
0.026863
0.020684
0.016123
0.044473
0.044556
0.040546
0.034713
0.029702
0.026682
0.060918
0.060130
0.053813
0.045908
0.040599
0.037709
0.074846
0.073914
0.065963
0.056403
0.050331
0.047304
0.082980
0.083105
0.074923
0.064123
0.057778
0.054636
0.087033
0.087587
0.079483
0.068762
0.062452
0.059458
0.085797
0.087359
0.080261
0.070287
0.064542
0.061844
0.080841
0.083541
0.078042
0.069326
0.064420
0.062156
0.074208
0.077621
0.073704
0.066641
0.062641
0.060877
0.066636
0.070731
0.068385
0.062859
0.059827
0.058522
0.059377
0.063846
0.062782
0.058689
0.056468
0.055591
0.052870
0.057581
0.057538
0.054564
0.053027
0.052480
0.047594
0.052358
0.052991
0.050859
0.049800
0.049501
0.043576
0.048315
0.049368
0.047753
0.047000
0.046853
0.040826
0.045465
0.046701
0.045338
0.044722
0.044649
0.039158
0.043676
0.044917
0.043596
0.042988
0.042929
0.038270
0.042709
0.043884
0.042447
0.041767
0.041680
0.038000
0.042384
0.043420
0.041802
0.041000
0.040866
0.038068
0.042497
0.043418
0.041565
0.040632
0.040442
0.038493
0.043004
0.043788
0.041688
0.040614
0.040369
0.039221
0.043881
0.044522
0.042136
0.040917
0.040611
0.040345
0.045176
0.045627
0.042901
0.041515
0.041137
0.041951
0.046954
0.047120
0.043973
0.042377
0.041910
0.044099
0.049256
0.049017
0.045325
0.043465
0.042874
0.046871
0.052109
0.051286
0.046909
0.044702
0.043951
0.050236
0.055469
0.053860
0.048617
0.045983
0.045020
0.054143
0.059199
0.056558
0.050300
0.047135
0.045917
0.058292
0.063013
0.059127
0.051690
0.047946
0.046416
0.062321
0.066420
0.061088
0.052500
0.048106
0.046252
0.065280
0.068695
0.061982
0.052256
0.047313
0.045112
0.066604
0.069011
0.060976
0.050608
0.045214
0.042698
0.064950
0.066383
0.057630
0.047187
0.041564
0.038769
0.059095
0.060111
0.051608
0.041882
0.036357
0.033220
0.050502
0.050758
0.043085
0.035422
0.029954
0.026218
0.038938
0.039333
0.034146
0.029377
0.023731
0.018337
0.028772
0.029993
0.028775
0.027278
0.020289
0.011286
0.028599
0.029749
0.031274
0.030964
0.022094
0.009668
0.035599
0.036510
0.038676
0.037850
0.027296
0.014294
0.044254
0.044704
0.046622
0.044683
0.032540
0.019367
0.047883
0.048315
0.050477
0.049236
0.036001
0.022444
0.049165
0.048926
0.051807
0.050878
0.036310
0.022884
0.039337
0.038876
0.043812
0.047990
0.033102
0.020522
0.037426
0.032181
0.036314
0.041884
0.025212
0.016688
0.074583
0.075852
0.069642
0.047660
0.026662
0.013151
0.238303
0.234594
0.240742
0.160478
0.048400
0.019046
0.700597
0.475443
0.189900
0.095077
0.045381
0.023594
0.319687
0.204623
0.096730
0.064291
0.033647
0.020122
0.091253
0.085894
0.064176
0.043756
0.031580
0.025662
0.041597
0.075365
0.060302
0.042492
0.033919
0.029950
0.040844
0.074479
0.065433
0.047363
0.036756
0.031608
0.050638
0.075264
0.068882
0.051736
0.039211
0.032330
0.051488
0.074203
0.070411
0.054459
0.041060
0.033044
0.055612
0.073171
0.070401
0.055783
0.042217
0.033705
0.071235
0.069442
0.055943
0.042590
0.033961
0.056677
0.069358
0.067710
0.055156
0.042100
0.033501
0.055848
0.066882
0.065357
0.053497
0.040738
0.032172
0.055727
0.064278
0.062362
0.051073
0.038573
0.030022
0.054610
0.061252
0.058874
0.048038
0.035858
0.027358
0.054827
0.058576
0.055136
0.044782
0.033109
0.024883
0.056176
0.056862
0.051962
0.042013
0.031227
0.023770
0.061166
0.057972
0.050558
0.040802
0.031312
0.025138
0.069652
0.062912
0.052328
0.042184
0.033799
0.028972
0.079628
0.070795
0.057312
0.045636
0.037953
0.033876
0.088168
0.078449
0.062784
0.049927
0.042269
0.038526
0.087657
0.081039
0.066646
0.053191
0.045686
0.042185
0.083942
0.080734
0.068516
0.055087
0.048125
0.044766
0.079705
0.079325
0.068721
0.056381
0.049729
0.046652
0.074165
0.076980
0.068692
0.056963
0.050960
0.048087
0.070202
0.074488
0.067868
0.057178
0.051705
0.049166
0.067398
0.071634
0.065992
0.056742
0.051903
0.049731
0.063374
0.067661
0.063315
0.055442
0.051439
0.049652
0.058774
0.062891
0.059752
0.053490
0.050272
0.048920
0.053476
0.057651
0.055801
0.051001
0.048595
0.047628
0.048348
0.052585
0.051811
0.048337
0.046603
0.045980
0.043691
0.048076
0.048229
0.045746
0.044554
0.044184
0.040069
0.044538
0.045289
0.043482
0.042633
0.042435
0.037626
0.042093
0.043135
0.041664
0.040982
0.040873
0.036216
0.040635
0.041754
0.040322
0.039667
0.039576
0.035675
0.039988
0.040969
0.039427
0.038690
0.038578
0.035449
0.039774
0.040655
0.038880
0.038034
0.037875
0.035562
0.039915
0.040639
0.038638
0.037658
0.037453
0.035768
0.040282
0.040913
0.038649
0.037543
0.037288
0.036265
0.040952
0.041458
0.038909
0.037663
0.037355
0.037085
0.041986
0.042305
0.039408
0.037998
0.037626
0.038326
0.043438
0.043479
0.040130
0.038515
0.038059
0.040054
0.045359
0.044973
0.041048
0.039168
0.038601
0.042249
0.047737
0.046770
0.042102
0.039891
0.039176
0.044896
0.050530
0.048786
0.043218
0.040592
0.039694
0.047832
0.053609
0.050917
0.044268
0.041170
0.040046
0.050974
0.056798
0.052954
0.045138
0.041500
0.040128
0.054009
0.059830
0.054738
0.045652
0.041501
0.039846
0.057117
0.062501
0.055935
0.045789
0.041085
0.039161
0.059954
0.064572
0.056657
0.045435
0.040278
0.038067
0.063683
0.066364
0.056628
0.044698
0.039138
0.036575
0.068616
0.067857
0.055880
0.043824
0.037643
0.034680
0.071617
0.067990
0.054922
0.042565
0.035885
0.032201
0.072942
0.066589
0.052682
0.041330
0.033630
0.028930
0.071321
0.062823
0.049510
0.039895
0.031117
0.024564
0.062124
0.055043
0.045949
0.038889
0.028663
0.019172
0.051481
0.047152
0.043434
0.039357
0.027227
0.013336
0.039160
0.039651
0.042494
0.041251
0.027665
0.009276
0.028383
0.034444
0.043185
0.044346
0.029995
0.011482
0.019493
0.030998
0.044348
0.048360
0.033836
0.018361
0.034429
0.039635
0.049767
0.054167
0.038888
0.025801
0.083179
0.083826
0.079034
0.069349
0.044932
0.029773
0.185264
0.181157
0.168533
0.112976
0.051043
0.026230
0.270420
0.262970
0.265303
0.188839
0.054186
0.021995
0.607611
0.461482
0.204476
0.095826
0.047539
0.027862
0.406205
0.278940
0.141053
0.080454
0.048697
0.029083
0.231935
0.175026
0.108612
0.070494
0.048898
0.038258
0.099478
0.112312
0.088832
0.063018
0.048917
0.041878
0.051882
0.089037
0.078355
0.058624
0.046465
0.040271
0.035758
0.076651
0.072689
0.055370
0.042696
0.035641
0.033475
0.070039
0.068840
0.052723
0.038748
0.030020
0.034047
0.065657
0.065779
0.050455
0.035268
0.024636
0.036866
0.062642
0.063118
0.048488
0.032492
0.020097
0.038585
0.060305
0.060796
0.046789
0.030467
0.016776
0.041690
0.058793
0.058802
0.045426
0.029254
0.015156
0.044680
0.058039
0.057318
0.044552
0.029065
0.015842
0.050173
0.058774
0.056619
0.044490
0.030226
0.018994
0.057408
0.061456
0.057292
0.045634
0.033003
0.024102
0.068681
0.067299
0.059880
0.048354
0.037338
0.030421
0.083022
0.076494
0.064931
0.052649
0.042673
0.037116
0.099905
0.088759
0.072091
0.057700
0.048126
0.043144
0.115998
0.101495
0.079633
0.062607
0.052335
0.047573
0.122878
0.109196
0.085461
0.065169
0.054434
0.049628
0.117639
0.106357
0.083727
0.063836
0.053855
0.049237
0.104251
0.097602
0.078023
0.060296
0.051262
0.047203
0.085995
0.086441
0.072459
0.055763
0.048303
0.044599
0.074258
0.077862
0.066980
0.052418
0.045721
0.042557
0.067106
0.071812
0.062722
0.050086
0.044211
0.041440
0.061327
0.066723
0.059644
0.048473
0.043477
0.041114
0.057358
0.062155
0.056489
0.047265
0.042975
0.041101