# vtk DataFile Version 2.0
test
ASCII
DATASET UNSTRUCTURED_GRID
POINTS 41454 float
0.750000 -0.500000 0.050000
0.750000 0.460000 0.050000
0.770553 -0.498752 0.050000
0.776985 -0.485864 0.050000
0.785261 -0.469027 0.050000
0.789122 -0.452792 0.050000
0.792637 -0.435707 0.050000
0.794905 -0.418986 0.050000
0.796751 -0.401910 0.050000
0.797955 -0.384958 0.050000
0.798733 -0.367821 0.050000
0.799011 -0.350741 0.050000
0.798839 -0.333557 0.050000
0.798188 -0.316446 0.050000
0.797049 -0.299306 0.050000
0.795420 -0.282329 0.050000
0.793290 -0.265447 0.050000
0.790719 -0.248906 0.050000
0.787792 -0.232648 0.050000
0.784684 -0.216903 0.050000
0.781651 -0.201542 0.050000
0.778833 -0.186527 0.050000
0.776483 -0.171792 0.050000
0.774565 -0.157008 0.050000
0.773101 -0.142295 0.050000
0.772010 -0.127364 0.050000
0.771177 -0.112331 0.050000
0.770529 -0.097106 0.050000
0.769980 -0.081763 0.050000
0.769489 -0.066297 0.050000
0.769017 -0.050757 0.050000
0.768551 -0.035154 0.050000
0.768077 -0.019515 0.050000
0.767593 -0.003848 0.050000
0.767096 0.011832 0.050000
0.766586 0.027519 0.050000
0.766062 0.043204 0.050000
0.765524 0.058882 0.050000
0.764976 0.074543 0.050000
0.764417 0.090184 0.050000
0.763852 0.105790 0.050000
0.763287 0.121355 0.050000
0.762732 0.136857 0.050000
0.762200 0.152290 0.050000
0.761715 0.167621 0.050000
0.761313 0.182840 0.050000
0.761036 0.197919 0.050000
0.760953 0.212846 0.050000
0.761129 0.227626 0.050000
0.761650 0.242276 0.050000
0.762596 0.256833 0.050000
0.764012 0.271460 0.050000
0.765843 0.286210 0.050000
0.768046 0.301294 0.050000
0.770318 0.316901 0.050000
0.772384 0.332987 0.050000
0.773946 0.349656 0.050000
0.774669 0.366653 0.050000
0.774500 0.383823 0.050000
0.773048 0.401073 0.050000
0.770590 0.417831 0.050000
0.765969 0.434415 0.050000
0.761255 0.448721 0.050000
-0.750000 0.460000 0.050000
0.733871 0.460000 0.050000
0.717742 0.460000 0.050000
0.701613 0.460000 0.050000
0.685484 0.460000 0.050000
0.669355 0.460000 0.050000
0.653226 0.460000 0.050000
0.637097 0.460000 0.050000
0.620968 0.460000 0.050000
0.604839 0.460000 0.050000
0.588710 0.460000 0.050000
0.572581 0.460000 0.050000
0.556452 0.460000 0.050000
0.540323 0.460000 0.050000
0.524194 0.460000 0.050000
0.508065 0.460000 0.050000
0.491935 0.460000 0.050000
0.475807 0.460000 0.050000
0.459677 0.460000 0.050000
0.443548 0.460000 0.050000
0.427419 0.460000 0.050000
0.411290 0.460000 0.050000
0.395161 0.460000 0.050000
0.379032 0.460000 0.050000
0.362903 0.460000 0.050000
0.346774 0.460000 0.050000
0.330645 0.460000 0.050000
0.314516 0.460000 0.050000
0.298387 0.460000 0.050000
0.282258 0.460000 0.050000
0.266129 0.460000 0.050000
0.250000 0.460000 0.050000
0.233871 0.460000 0.050000
0.217742 0.460000 0.050000
0.201613 0.460000 0.050000
0.185484 0.460000 0.050000
0.169355 0.460000 0.050000
0.153226 0.460000 0.050000
0.137097 0.460000 0.050000
0.120968 0.460000 0.050000
0.104839 0.460000 0.050000
0.088710 0.460000 0.050000
0.072581 0.460000 0.050000
0.056452 0.460000 0.050000
0.040323 0.460000 0.050000
0.024194 0.460000 0.050000
0.008065 0.460000 0.050000
-0.008065 0.460000 0.050000
-0.024194 0.460000 0.050000
-0.040323 0.460000 0.050000
-0.056452 0.460000 0.050000
-0.072581 0.460000 0.050000
-0.088710 0.460000 0.050000
-0.104839 0.460000 0.050000
-0.120968 0.460000 0.050000
-0.137097 0.460000 0.050000
-0.153226 0.460000 0.050000
-0.169355 0.460000 0.050000
-0.185484 0.460000 0.050000
-0.201613 0.460000 0.050000
-0.217742 0.460000 0.050000
-0.233871 0.460000 0.050000
-0.250000 0.460000 0.050000
-0.266129 0.460000 0.050000
-0.282258 0.460000 0.050000
-0.298387 0.460000 0.050000
-0.314516 0.460000 0.050000
-0.330645 0.460000 0.050000
-0.346774 0.460000 0.050000
-0.362903 0.460000 0.050000
-0.379032 0.460000 0.050000
-0.395161 0.460000 0.050000
-0.411290 0.460000 0.050000
-0.427419 0.460000 0.050000
-0.443548 0.460000 0.050000
-0.459677 0.460000 0.050000
-0.475807 0.460000 0.050000
-0.491935 0.460000 0.050000
-0.508065 0.460000 0.050000
-0.524194 0.460000 0.050000
-0.540323 0.460000 0.050000
-0.556452 0.460000 0.050000
-0.572581 0.460000 0.050000
-0.588710 0.460000 0.050000
-0.604839 0.460000 0.050000
-0.620968 0.460000 0.050000
-0.637097 0.460000 0.050000
-0.653226 0.460000 0.050000
-0.669355 0.460000 0.050000
-0.685484 0.460000 0.050000
-0.701613 0.460000 0.050000
-0.717742 0.460000 0.050000
-0.733871 0.460000 0.050000
-0.750000 -0.500000 0.050000
-0.760006 0.447854 0.050000
-0.764387 0.433448 0.050000
-0.768737 0.416747 0.050000
-0.771157 0.400012 0.050000
-0.772672 0.382656 0.050000
-0.773039 0.365535 0.050000
-0.772620 0.348381 0.050000
-0.771474 0.331686 0.050000
-0.769884 0.315260 0.050000
-0.768012 0.299374 0.050000
-0.766156 0.283832 0.050000
-0.764410 0.268607 0.050000
-0.762961 0.253623 0.050000
-0.761810 0.238674 0.050000
-0.760969 0.223793 0.050000
-0.760407 0.208825 0.050000
-0.760062 0.193805 0.050000
-0.759893 0.178680 0.050000
-0.759849 0.163481 0.050000
-0.759899 0.148197 0.050000
-0.760016 0.132859 0.050000
-0.760181 0.117464 0.050000
-0.760383 0.102039 0.050000
-0.760614 0.086580 0.050000
-0.760869 0.071111 0.050000
-0.761145 0.055620 0.050000
-0.761438 0.040134 0.050000
-0.761743 0.024635 0.050000
-0.762054 0.009153 0.050000
-0.762368 -0.006323 0.050000
-0.762678 -0.021759 0.050000
-0.762990 -0.037150 0.050000
-0.763316 -0.052458 0.050000
-0.763682 -0.067667 0.050000
-0.764127 -0.082741 0.050000
-0.764702 -0.097668 0.050000
-0.765480 -0.112414 0.050000
-0.766534 -0.127015 0.050000
-0.767966 -0.141422 0.050000
-0.769842 -0.155810 0.050000
-0.772203 -0.170091 0.050000
-0.775101 -0.184564 0.050000
-0.778382 -0.199240 0.050000
-0.781985 -0.214272 0.050000
-0.785666 -0.229815 0.050000
-0.789221 -0.245782 0.050000
-0.792492 -0.262252 0.050000
-0.795319 -0.279035 0.050000
-0.797658 -0.296132 0.050000
-0.799435 -0.313400 0.050000
-0.800670 -0.330804 0.050000
-0.801313 -0.348291 0.050000
-0.801417 -0.365778 0.050000
-0.800884 -0.383332 0.050000
-0.799821 -0.400744 0.050000
-0.797942 -0.418305 0.050000
-0.795542 -0.435489 0.050000
-0.791613 -0.453072 0.050000
-0.787330 -0.469682 0.050000
-0.777988 -0.486750 0.050000
-0.771291 -0.499857 0.050000
-0.733871 -0.500000 0.050000
-0.717742 -0.500000 0.050000
-0.701613 -0.500000 0.050000
-0.685484 -0.500000 0.050000
-0.669355 -0.500000 0.050000
-0.653226 -0.500000 0.050000
-0.637097 -0.500000 0.050000
-0.620968 -0.500000 0.050000
-0.604839 -0.500000 0.050000
-0.588710 -0.500000 0.050000
-0.572581 -0.500000 0.050000
-0.556452 -0.500000 0.050000
-0.540323 -0.500000 0.050000
-0.524194 -0.500000 0.050000
-0.508065 -0.500000 0.050000
-0.491935 -0.500000 0.050000
-0.475807 -0.500000 0.050000
-0.459677 -0.500000 0.050000
-0.443548 -0.500000 0.050000
-0.427419 -0.500000 0.050000
-0.411290 -0.500000 0.050000
-0.395161 -0.500000 0.050000
-0.379032 -0.500000 0.050000
-0.362903 -0.500000 0.050000
-0.346774 -0.500000 0.050000
-0.330645 -0.500000 0.050000
-0.314516 -0.500000 0.050000
-0.298387 -0.500000 0.050000
-0.282258 -0.500000 0.050000
-0.266129 -0.500000 0.050000
-0.250000 -0.500000 0.050000
-0.233871 -0.500000 0.050000
-0.217742 -0.500000 0.050000
-0.201613 -0.500000 0.050000
-0.185484 -0.500000 0.050000
-0.169355 -0.500000 0.050000
-0.153226 -0.500000 0.050000
-0.137097 -0.500000 0.050000
-0.120968 -0.500000 0.050000
-0.104839 -0.500000 0.050000
-0.088710 -0.500000 0.050000
-0.072581 -0.500000 0.050000
-0.056452 -0.500000 0.050000
-0.040323 -0.500000 0.050000
-0.024194 -0.500000 0.050000
-0.008065 -0.500000 0.050000
0.008065 -0.500000 0.050000
0.024194 -0.500000 0.050000
0.040323 -0.500000 0.050000
0.056452 -0.500000 0.050000
0.072581 -0.500000 0.050000
0.088710 -0.500000 0.050000
0.104839 -0.500000 0.050000
0.120968 -0.500000 0.050000
0.137097 -0.500000 0.050000
0.153226 -0.500000 0.050000
0.169355 -0.500000 0.050000
0.185484 -0.500000 0.050000
0.201613 -0.500000 0.050000
0.217742 -0.500000 0.050000
0.233871 -0.500000 0.050000
0.250000 -0.500000 0.050000
0.266129 -0.500000 0.050000
0.282258 -0.500000 0.050000
0.298387 -0.500000 0.050000
0.314516 -0.500000 0.050000
0.330645 -0.500000 0.050000
0.346774 -0.500000 0.050000
0.362903 -0.500000 0.050000
0.379032 -0.500000 0.050000
0.395161 -0.500000 0.050000
0.411290 -0.500000 0.050000
0.427419 -0.500000 0.050000
0.443548 -0.500000 0.050000
0.459677 -0.500000 0.050000
0.475807 -0.500000 0.050000
0.491935 -0.500000 0.050000
0.508065 -0.500000 0.050000
0.524194 -0.500000 0.050000
0.540323 -0.500000 0.050000
0.556452 -0.500000 0.050000
0.572581 -0.500000 0.050000
0.588710 -0.500000 0.050000
0.604839 -0.500000 0.050000
0.620968 -0.500000 0.050000
0.637097 -0.500000 0.050000
0.653226 -0.500000 0.050000
0.669355 -0.500000 0.050000
0.685484 -0.500000 0.050000
0.701613 -0.500000 0.050000
0.717742 -0.500000 0.050000
0.733871 -0.500000 0.050000
0.752862 -0.484334 0.050000
0.764217 -0.477002 0.050000
0.769597 -0.464000 0.050000
0.774210 -0.448721 0.050000
0.777118 -0.433058 0.050000
0.779596 -0.416774 0.050000
0.781291 -0.400458 0.050000
0.782578 -0.383864 0.050000
0.783328 -0.367272 0.050000
0.783649 -0.350532 0.050000
0.783487 -0.333823 0.050000
0.782853 -0.317041 0.050000
0.781717 -0.300357 0.050000
0.780052 -0.283679 0.050000
0.777844 -0.267220 0.050000
0.775102 -0.250893 0.050000
0.771901 -0.234962 0.050000
0.768447 -0.219283 0.050000
0.764981 -0.203998 0.050000
0.761890 -0.188938 0.050000
0.759285 -0.173886 0.050000
0.757308 -0.158964 0.050000
0.755878 -0.143830 0.050000
0.754874 -0.128683 0.050000
0.754171 -0.113374 0.050000
0.753637 -0.097994 0.050000
0.753194 -0.082510 0.050000
0.752778 -0.066969 0.050000
0.752366 -0.051369 0.050000
0.751938 -0.035737 0.050000
0.751493 -0.020076 0.050000
0.751026 -0.004399 0.050000
0.750538 0.011288 0.050000
0.750029 0.026978 0.050000
0.749501 0.042668 0.050000
0.748953 0.058349 0.050000
0.748386 0.074020 0.050000
0.747802 0.089669 0.050000
0.747202 0.105296 0.050000
0.746590 0.120886 0.050000
0.745972 0.136438 0.050000
0.745360 0.151930 0.050000
0.744775 0.167364 0.050000
0.744250 0.182710 0.050000
[...]
CELL_DATA 34596
SCALARS Mises_Stress_Abs(MPa) float 1
LOOKUP_TABLE default
49.160100
52.072800
36.612800
44.187300
48.094700
44.612700
48.884900
47.213500
32.736200
49.980200
12.883000
42.969300
23.833300
5.882090
1.975470
0.977484
0.800334
0.339683
17.961400
0.184693
2.129530
8.762110
26.764100
1.597430
1.223680
1.239190
0.625028
0.317822
26.600400
15.230200
23.606500
7.546670
10.513300
12.391700
18.879200
21.721500
17.100300
11.568600
18.713600
12.514400
19.683200
23.131400
26.235100
28.945600
13.416700
19.374100
1.307870
1.712200
1.175370
1.246110
0.619432
23.051700
26.713700
22.632500
17.681700
14.143400
24.025800
28.375900
24.339500
25.831800
25.850800
23.360700
24.858700
8.004270
22.649700
25.692100
8.074800
20.355600
16.711400
0.933578
1.614060
1.738370
1.610540
1.317480
23.120800
16.327100
27.597900
54.261000
17.610000
17.147800
59.029100
56.459500
18.209400
25.500300
63.740700
19.704900
16.391200
59.234000
60.508400
30.296000
60.199100
58.432700
1.615820
2.140210
1.629580
1.958040
1.778260
12.329900
14.489200
22.167500
19.315300
28.751300
33.776400
15.410500
14.376000
22.985400
13.241600
2.159360
2.494210
1.984970
2.081290
13.671500
10.783800
9.972440
4.381280
5.668670
18.995000
11.844800
16.000000
1.873310
20.154300
17.763200
23.460000
15.209700
21.596800
12.963200
9.527510
2.822690
2.227510
2.200980
2.607560
2.911590
10.402400
13.276200
15.390200
14.126700
9.115800
14.077100
12.405100
12.204100
10.411000
12.245600
2.780340
3.450330
3.060070
2.633520
2.633770
10.949500
11.737800
8.494380
12.834100
11.454900
6.554720
9.362610
12.475000
16.465200
10.702100
3.011910
4.242580
2.706190
3.334550
3.652390
6.487840
10.009400
10.566100
11.690200
8.333020
3.028060
3.790080
4.367170
4.442930
3.345110
4.237570
11.326200
12.569400
10.952900
4.391860
8.031560
8.994960
7.948710
12.337000
6.008500
4.530800
4.164450
4.018210
5.859950
3.243650
8.699580
11.387600
12.774800
10.752400
7.608520
8.379170
6.670020
7.539010
5.592550
8.925950
4.515900
5.039760
5.412310
3.526850
11.338000
5.587920
9.818680
12.176700
11.314000
13.257700
6.746300
6.142990
8.615940
5.103320
6.449920
3.716290
5.360620
5.687470
6.280140
12.648000
7.752890
15.362700
13.770000
17.935400
11.688100
5.440840
6.111470
6.267670
4.785880
5.337910
6.228930
7.613240
6.734820
6.457390
6.263850
16.234900
16.497800
12.927300
14.772600
5.452380
4.445990
20.271300
4.969420
4.187520
5.005910
13.356100
8.343550
6.133330
11.743900
8.980690
26.036700
15.047200
14.550200
24.462600
21.073700
4.063330
3.878640
3.660870
3.753990
4.469150
20.506100
9.247880
9.228570
9.666170
16.159800
26.444700
10.658500
17.635700
32.183800
18.576700
3.008200
3.662170
3.244280
3.002670
3.502280
22.453200
43.774000
13.070800
39.334800
44.556900
10.810200
12.733500
39.536700
40.201200
17.302400
15.236000
19.046700
46.745200
22.412000
44.529000
17.361600
25.195800
2.876500
2.452910
2.866420
2.937350
1.757220
12.670700
25.735100
22.599300
10.229600
14.131600
17.032300
21.641900
25.061200
24.584100
9.834750
19.366100
15.926000
16.589300
22.360000
23.217800
19.805200
21.666000
2.402580
1.281220
1.897470
2.251900
2.267520
12.428900
18.330800
11.983600
14.964000
10.530300
3.204270
17.996100
24.055200
4.945980
14.950700
14.414800
5.985320
24.667200
3.297180
10.514200
19.542900
6.065050
0.588341
1.382330
1.866330
1.789990
1.651450
15.538800
9.974590
13.763300
13.887200
16.317100
15.712500
18.549200
16.505200
16.283100
16.269700
7.434470
16.307500
18.699400
22.325000
21.154200
16.716300
20.578400
0.424955
1.651580
0.883960
1.162030
1.261750
5.542930
34.397200
10.404900
33.521300
25.881800
21.590800
14.690000
29.743700
36.298500
32.932700
36.615900
7.336790
28.317600
13.969000
22.903300
2.578310
32.970800
1.284690
0.915611
0.571826
1.371030
0.404680
0.032772
6.038590
10.181300
3.023330
3.717080
8.527280
6.018250
5.289550
2.951530
4.919700
2.895820
3.518700
2.227650
2.173120
4.248290
3.449880
2.093580
3.036840
2.103330
2.417460
2.348840
8.518460
9.180040
6.526600
8.167690
6.829940
6.996800
5.973630
7.123060
8.706490
4.817570
2.404120
5.850630
8.641160
3.245830
1.770840
2.315790
6.669330
4.569780
8.015490
7.685750
8.324690
3.814510
3.961430
2.377880
3.832010
2.276020
3.663710
2.752320
3.667130
3.380950
4.524970
4.882760
4.264770
1.163250
2.906890
1.932360
1.788460
2.953860
2.465450
2.351520
2.677980
1.747010
2.364880
4.199540
2.387530
2.743040
2.830570
3.110490
2.818500
4.807670
3.523070
3.332900
4.342280
3.470350
4.201210
4.055490
2.686010
1.320610
6.573090
5.093170
5.584840
5.645580
4.398570
5.814650
5.821320
6.325950
2.771910
7.119440
4.928440
6.039690
6.632230
3.314960
6.306140
4.867450
6.296910
4.910730
6.026190
5.354400
5.641910
4.160370
6.655580
5.630210
6.247230
5.100930
6.070050
4.945210
4.435090
1.811680
3.572810
4.837190
12.050200
12.245600
5.408170
7.321460
5.797980
9.034780
7.571830
10.320900
14.776200
13.872700
14.301100
10.706800
12.349900
10.413500
8.557410
9.147760
9.909390
13.982900
4.606110
5.317320
4.705200
6.322420
2.979300
2.900090
6.138120
7.938860
9.091170
10.363700
11.670100
3.345050
3.775090
0.001953
0.001060
8.643770
7.227590
6.217490
6.961590
6.696810
9.276690
2.663060
0.003497
0.006670
2.938450
8.759720
4.152980
0.001861
9.594040
0.003416
1.281170
1.511920
4.995370
3.145560
2.383830
0.005948
1.500870
5.068760
9.544550
4.029520
0.012047
4.892210
9.640340
2.100840
0.001927
3.474030
0.002914
1.431450
3.331650
0.958230
0.493408
9.320640
0.005198
4.587920
5.558620
0.010821
10.213400
4.602420
0.001957
1.326640
3.201460
3.393960
0.002610
1.202880
1.743180
0.005169
0.472982
5.503720
9.500220
0.010531
4.382670
0.001894
0.002665
9.989950
4.877220
3.959300
5.154380
2.165390
6.222580
6.894230
0.001917
0.010342
9.107920
0.005039
4.448080
1.450260
4.983690
4.636940
9.873960
3.705080
0.003239
0.001952
0.001281
8.979150
12.687100
11.920500
0.010212
8.349470
0.005006
4.539520
4.762480
1.613740
4.792470
9.231460
0.005042
0.001036
0.003103
0.004763
10.253500
13.133000
8.876080
0.010163
9.499190
15.603600
2.715220
4.260420
0.004982
3.472790
7.750640
8.458670
4.554210
6.280270
0.004872
0.003492
0.001426
5.693790
0.006141
0.010132
5.937450
11.369700
14.711400
0.001583
0.004980
6.107960
4.592220
2.970820
3.191150
7.387240
4.651010
14.308600
0.002677
0.006036
1.438080
6.054630
22.779400
15.581100
20.925900
0.009990
11.019300
5.526510
6.129180
0.004886
3.977450
1.986240
4.115110
4.220550
4.225280
6.191210
0.002861
14.333000
10.296200
10.257000
5.550420
9.683360
3.051380
5.184570
0.961812
0.010015
0.001911
5.056480
0.004737
1.909910
4.616130
7.763690
10.551000
7.416480
5.006910
7.475550
10.435000
10.483000
8.182870
3.732810
4.469630
1.768310
3.718100
0.963392
3.295710
2.186470
0.842444
4.266450
4.126520
0.002407
0.005110
5.263570
6.810010
10.360100
3.527510
7.093370
5.923810
10.264100
7.413370
7.489460
11.037200
8.291310
11.129000
12.136400
6.192660
1.386650
12.091100
11.329900
7.427540
11.228800
3.659750
11.567500
14.341900
6.233260
4.167100
12.775800
5.929480
11.160300
11.322800
13.276000
17.718300
4.279180
18.608200
8.069860
5.914360
5.657320
7.137930
4.519910
5.088530
1.172530
6.305010
5.365800
6.269650
5.301800
3.747200
4.079540
3.977070
5.814310
6.406500
8.078150
6.882290
5.560690
5.278030
5.590540
2.778640
3.360410
0.007257
1.645630
5.695600
4.736760
3.394720
13.063400
15.147100
16.470400
9.984370
14.636800
8.948990
10.502100
1.711090
6.380680
3.059170
6.911500
8.050350
3.953740
3.031590
4.954470
5.356070
4.952300
2.154900
2.755070
5.454630
2.235020
6.304780
1.802360
3.846930
6.653470
3.683680
3.890440
7.802480
11.345100
3.310070
7.219970
5.871330
5.196580
4.536250
8.007920
11.319700
10.928000
4.629770
4.074080
6.046680
5.577010
7.002930
5.548260
8.485250
6.157820
5.855240
4.213900
6.513250
5.307210
2.730440
6.204360
3.419250
6.633140
5.937810
6.985780
3.207570
3.575820
1.797100
3.284860
4.947940
2.869310
7.993570
2.841790
6.508450
6.446830
1.600440
5.556170
3.818760
2.542100
4.918630
3.458050
2.116510
2.865480
4.904990
4.213720
2.359920
2.762520
6.331260
3.618450
2.004580
3.368440
2.197630
3.946250
2.279810
3.417890
4.129520
2.551210
2.898200
1.512080
4.678820
2.229930
3.194380
4.519770
4.787790
3.177130
1.806520
2.398910
1.829370
2.943880
3.568940
1.967330
1.971640
2.499750
3.289400
2.908190
2.513170
3.313130
2.242710
2.524110
1.326810
1.964790
2.617100
1.210320
0.821045
2.657550
1.122250
1.227930
1.245380
1.219700
0.496267
1.576000
2.679050
1.695470
1.716910
1.480040
1.104120
0.903659
1.872220
3.231900
1.172500
2.812210
3.086880
2.785200
1.928700
0.684820
0.601751
1.439060
2.016500
0.850283
3.600510
4.963540
11.001400
1.246270
1.593720
1.243590
2.515580
3.297770
5.270930
2.920860
6.459180
5.672710
0.004905
3.845170
0.004203
0.005529
9.643460
11.743200
5.780860
6.481600
7.558470
0.004904
0.005691
3.193250
0.004933
5.102320
5.458840
4.610290
10.045600
6.926970
3.735940
0.005937
2.748690
0.005817
0.005015
5.799060
4.749580
4.524530
8.339840
1.076310
1.330980
0.006857
3.218080
2.206660
0.005131
0.006265
6.964960
3.855610
3.869450
5.013460
0.005265
0.006658
2.191630
0.008069
1.925380
5.438370
3.394370
4.276420
3.392410
1.493170
1.849870
0.005380
0.009402
0.007096
4.614450
2.641800
2.997470
3.336130
0.010893
0.005420
0.007526
2.359500
3.082230
2.900020
2.358670
0.012488
0.007874
0.771690
1.203460
0.005322
1.785780
2.015710
1.984200
3.089450
1.208820
2.046590
1.461690
1.421770
0.729668
1.419220
1.567190
3.209860
16.448700
10.795700
9.060840
20.746600
13.459100
5.852890
0.005652
0.003308
10.407400
5.733870
19.348300
9.499600
11.322000
16.906400
0.003387
7.897250
5.239250
0.005060
13.138800
8.617160
9.620990
15.736300
7.081110
4.365710
7.546180
0.003660
0.005459
0.004938
12.505000
9.137560
13.999900
7.278370
5.253220
7.872470
15.060700
15.415300
15.983000
10.297100
15.881100
16.359600
12.977800
13.766000
16.775000
17.634100
19.990900
17.658100
20.128500
19.127900
18.409500
21.127200
19.085000
19.648100
16.963300
18.378400
3.023060
18.634300
19.688700
11.589800
7.402070
4.546230
20.583900
21.537500
15.434800
9.555090
9.982200
7.708110
8.336710
8.810140
9.008960
9.019520
8.657700
8.464780
8.309070
7.817910
9.029730
10.611800
9.924160
11.432500
10.554700
10.718600
9.418050
9.499090
10.288900
9.824050
10.238900
10.657600
12.136700
14.162000
4.938910
12.345500
12.990200
9.657880
13.355600
10.520400
22.098200
8.201700
21.338600
19.766000
21.973800
11.180400
10.091300
1.410050
1.716510
1.894320
1.543480
4.085600
2.084900
2.903560
1.171900
0.952447
6.721160
1.633730
1.248250
1.391670
1.860940
1.733880
1.066750
1.544700
0.946670
1.979600
3.266670
1.972490
4.265010
13.586900
8.399660
10.904600
14.314600
15.409300
16.034300
7.706390
11.628100
5.431650
3.081310
7.510370
8.059910
7.160700
6.730370
7.313760
7.921070
7.530690
7.841860
7.711950
7.835500
8.015850
8.224130
8.847080
7.877970
5.906020
8.462340
8.549460
8.816790
8.989680
3.138290
8.195360
18.138600
16.481800
16.321300
9.972600
15.181300
13.676600
14.500900
11.108400
13.899600
7.619520
5.484700
14.656900
15.953900
15.530600
15.909300
16.418500
15.152300
16.901500
15.319000
16.416800
16.833800
17.556600
17.974600
17.408900
17.158700
17.395600
19.174000
10.210600
18.808100
8.265390
18.596300
15.770400
16.056200
21.118800
16.605600
25.303300
22.788400
23.849100
21.457600
24.510800
24.745600
25.510500
26.102900
23.712700
22.865400
25.914700
26.901300
26.548900
30.160300
30.443900
27.624600
28.220900
26.552800
15.129700
11.335200
26.134100
16.515700
23.361600
11.284500
16.789300
0.002629
8.360510
0.004378
11.830100
26.077200
8.071920
15.547000
24.454000
0.003996
14.137400
0.006963
10.176400
13.248900
9.812060
22.515500
24.284900
15.650200
6.706960
10.070500
0.003401
0.005981
0.004287
0.006543
0.005733
0.005288
0.006983
0.007927
0.005238
0.015741
0.008867
0.210607
0.702882
0.417301
0.014154
0.431257
6.495950
8.638050
5.558910
3.900150
3.253470
1.946390
1.441860
0.677197
0.365278
0.421873
0.270647
0.113758
0.066832
0.024626
0.016427
0.090202
0.047247
0.035565
0.038671
0.014876
0.011125
0.042861
0.049680
0.027336
0.018345
0.013582
0.010947
0.039672
0.059276
0.043299
0.026727
0.019634
0.016513
0.050148
0.064433
0.052610
0.036686
0.027176
0.022450
0.047566
0.064099
0.057394
0.043186
0.033147
0.027670
0.050099
0.063558
0.059237
0.047071
0.037275
0.031723
0.049343
0.062026
0.059661
0.049056
0.039835
0.034453
0.050081
0.060613
0.059064
0.049718
0.041013
0.035863
0.049459
0.058763
0.057755
0.049253
0.040965
0.035977
0.048870
0.056596
0.055662
0.047767
0.039725
0.034814
0.047049
0.053665
0.052715
0.045209
0.037300
0.032361
0.044380
0.049795
0.048686
0.041525
0.033656
0.028606
0.039994
0.044568
0.043447
0.036659
0.028838
0.023578
0.034190
0.037965
0.036951
0.030794
0.023071
0.017483
0.027119
0.030447
0.029871
0.024641
0.017259
0.011189
0.022176
0.024770
0.024448
0.020397
0.014136
0.008650
0.025630
0.026496
0.025063
0.021616
0.017194
0.014035
0.036012
0.035785
0.032546
0.028133
0.024399
0.022183
0.048473
0.047482
0.042406
0.036379
0.032354
0.030177
0.058583
0.057437
0.051101
0.043863
0.039277
0.036987
0.064181
0.063770
0.057292
0.049218
0.044453
0.042087
0.066502
0.066478
0.060184
0.052263
0.047573
0.045331
0.064893
0.065713
0.060315
0.053032
0.048803
0.046797
0.060761
0.062432
0.058301
0.052020
0.048438
0.046767
0.055499
0.057738
0.054826
0.049790
0.046899
0.045604
0.049651
0.052426
0.050711
0.046808
0.044636
0.043685
0.044140
0.047194
0.046427
0.043579
0.042004
0.041370
0.039202
0.042445
0.042436
0.040404
0.039335
0.038944
0.035193
0.038476
0.038966
0.037553
0.036837
0.036631
0.032114
0.035382
0.036184
0.035152
0.034665
0.034572
0.029982
0.033177
0.034113
0.033268
0.032886
0.032850
0.028666
0.031768
0.032703
0.031890
0.031516
0.031491
0.027939
0.030976
0.031857
0.030958
0.030533
0.030487
0.027679
0.030665
0.031437
0.030405
0.029890
0.029811
0.027665
0.030676
0.031361
0.030158
0.029548
0.029428
0.027910
0.030973
0.031559
0.030180
0.029469
0.029308
0.028368
0.031534
0.032021
0.030444
0.029630
0.029426
0.029108
0.032394
0.032754
0.030943
0.030012
0.029759
0.030197
0.033604
0.033772
0.031674
0.030597
0.030281
0.031679
0.035198
0.035092
0.032617
0.031357
0.030954
0.033631
0.037203
0.036694
0.033746
0.032240
0.031724
0.036027
0.039599
0.038543
0.034986
0.033175
0.032507
0.038871
0.042308
0.040516
0.036240
0.034041
0.033186
0.041945
0.045141
0.042454
0.037318
0.034688
0.033601
0.045056
0.047779
0.044014
0.038019
0.034894
0.033559
0.047499
0.049693
0.044875
0.038002
0.034433
0.032829
0.048813
0.050278
0.044432
0.036989
0.033042
0.031186
0.048091
0.048784
0.042294
0.034698
0.030523
0.028442
0.044207
0.044579
0.038186
0.031009
0.026855
0.024509
0.038102
0.037962
0.032169
0.026413
0.022281
0.019498
0.029584
0.029617
0.025696
0.022028
0.017766
0.013807
0.021577
0.022435
0.021562
0.020337
0.015133
0.008571
0.020274
0.021431
0.022908
0.022744
0.016170
0.006832
0.024555
0.025795
0.027991
0.027560
0.019716
0.009763
0.030263
0.031297
0.033452
0.032366
0.023370
0.013253
0.032518
0.033580
0.036032
0.035551
0.025742
0.015342
0.032375
0.033065
0.036322
0.036509
0.025858
0.015566
0.025114
0.025596
0.030543
0.034574
0.023513
0.013862
0.025082
0.021977
0.024986
0.030884
0.018132
0.011285
0.063763
0.064456
0.058764
0.040072
0.020076
0.008710
0.165857
0.164070
0.171614
0.119160
0.032158
0.013288
0.484642
0.328884
0.119813
0.062864
0.029745
0.015830
0.260242
0.169483
0.078646
0.044678
0.023602
0.013137
0.103076
0.088305
0.056189
0.033978
0.023063
0.017760
0.040134
0.065952
0.050373
0.033286
0.024915
0.021126
0.028973
0.059249
0.050911
0.035609
0.026535
0.021954
0.028599
0.055917
0.051602
0.037749
0.027531
0.021688
0.029507
0.053541
0.051566
0.038975
0.028147
0.021329
0.032001
0.051689
0.050864
0.039429
0.028435
0.021118
0.049853
0.049746
0.039234
0.028360
0.020857
0.034050
0.048192
0.048260
0.038510
0.027838
0.020298
0.034251
0.046381
0.046467
0.037289
0.026848
0.019295
0.034824
0.044579
0.044337
0.035641
0.025438
0.017889
0.034965
0.042669
0.041973
0.033682
0.023819
0.016369
0.036355
0.041215
0.039564
0.031715
0.022412
0.015386
0.038881
0.040700
0.037715
0.030256
0.021866
0.015814
0.044179
0.042424
0.037271
0.029998
0.022829
0.018084
0.051601
0.046719
0.038957
0.031490
0.025290
0.021705
0.059040
0.052571
0.042726
0.034225
0.028646
0.025684
0.065348
0.058108
0.046669
0.037437
0.031972
0.029282
0.065476
0.060453
0.049772
0.040072
0.034676
0.032143
0.063314
0.060769
0.051595
0.041795
0.036712
0.034245
0.060669
0.060141
0.052089
0.043014
0.038105
0.035813
0.056892
0.058560
0.052176
0.043556
0.039098
0.036949
0.053988
0.056585
0.051421
0.043635
0.039587
0.037687
0.051453
0.054098
0.049772
0.043095
0.039553
0.037937
0.047937
0.050745
0.047505
0.041875
0.038971
0.037655
0.044197
0.046919
0.044603
0.040182
0.037869
0.036881
0.040018
0.042831
0.041487
0.038124
0.036415
0.035713
0.036067
0.038930
0.038372
0.035975
0.034760
0.034313
0.032472
0.035459
0.035585
0.033909
0.033092
0.032832
0.029653
0.032710
0.033282
0.032104
0.031543
0.031411
0.027718
0.030781
0.031571
0.030645
0.030211
0.030146
0.026566
0.029597
0.030446
0.029552
0.029141
0.029091
0.026091
0.029037
0.029777
0.028803
0.028334
0.028269
0.025859
0.028807
0.029468
0.028322
0.027774
0.027675
0.025884
0.028843
0.029385
0.028075
0.027429
0.027296
0.025969
0.029040
0.029517
0.028021
0.027285
0.027115
0.026262
0.029455
0.029849
0.028156
0.027321
0.027115
0.026789
0.030133
0.030403
0.028474
0.027524
0.027273
0.027623
0.031117
0.031204
0.028964
0.027873
0.027564
0.028827
0.032452
0.032246
0.029612
0.028335
0.027948
0.030381
0.034134
0.033527
0.030377
0.028867
0.028373
0.032313
0.036148
0.034989
0.031211
0.029402
0.028775
0.034484
0.038408
0.036574
0.032022
0.029867
0.029073
0.036894
0.040807
0.038123
0.032729
0.030167
0.029185
0.039246
0.043142
0.039535
0.033190
0.030230
0.029033
0.041730
0.045270
0.040530
0.033367
0.029980
0.028570
0.043939
0.046924
0.041148
0.033164
0.029410
0.027780
0.046518
0.048257
0.041199
0.032627
0.028558
0.026669
0.050036
0.049338
0.040646
0.031946
0.027425
0.025244
0.052218
0.049417
0.039901
0.030995
0.026109
0.023408
0.053112
0.048360
0.038274
0.030092
0.024485
0.021036
0.051952
0.045645
0.036079
0.029140
0.022725
0.017919
0.045173
0.040118
0.033697
0.028547
0.021037
0.014079
0.037139
0.034274
0.031895
0.028934
0.020043
0.009894
0.027017
0.028377
0.031169
0.030303
0.020363
0.007000
0.017758
0.024313
0.031655
0.032586
0.022123
0.008699
0.013487
0.023439
0.033228
0.035746
0.025059
0.013786
0.029459
0.032837
0.038450
0.040398
0.028912
0.019092
0.067966
0.067216
0.061455
0.052135
0.033187
0.021555
0.136753
0.133442
0.121886
0.082157
0.036983
0.018320
0.181932
0.177703
0.181669
0.135700
0.036449
0.015275
0.411138
0.318747
0.126866
0.064576
0.031598
0.018840
0.281047
0.200817
0.106542
0.056610
0.034190
0.020026
0.182503
0.139795
0.084490
0.053030
0.035813
0.027529
0.093969
0.094901
0.070738
0.049001
0.036986
0.030959
0.050530
0.073049
0.062298
0.045828
0.035606
0.030300
0.033558
0.061186
0.056757
0.042891
0.032737
0.026987
0.024810
0.053949
0.052761
0.040204
0.029364
0.022510
0.021898
0.049239
0.049587
0.037840
0.026158
0.017826
0.021732
0.045914
0.046971
0.035824
0.023463
0.013470
0.022524
0.043533
0.044804
0.034175
0.021459
0.009870
0.024730
0.041985
0.043068
0.032953
0.020303
0.007915
0.027493
0.041276
0.041864
0.032273
0.020210
0.008848
0.032425
0.041863
0.041382
0.032344
0.021379
0.012285
0.038791
0.044078
0.042006
0.033398
0.023854
0.016991
0.048374
0.048797
0.044077
0.035600
0.027402
0.022215
0.059951
0.055933
0.047847
0.038837
0.031477
0.027378
0.072983
0.065097
0.053035
0.042426
0.035453
0.031823
0.084846
0.074103
0.058069
0.045771
0.038414
0.035002
0.088746
0.078786
0.061713
0.047386
0.039875
0.036490
0.086260
0.077696
0.061060
0.046720
0.039629
0.036339
0.077322
0.072153
0.057561
0.044631
0.038086
0.035138
0.064741
0.064627
0.054032
0.041817
0.036325
0.033594
0.056748
0.058746
0.050348
0.039728
0.034781
0.032415
0.051357
0.054288
0.047367
0.038183
0.033848
0.031778
0.046804
0.050308
0.045027
0.036979
0.033302
0.031548
0.043619
0.046705
0.042501
0.035932
0.032802
0.031416
0.040012
0.042929
0.039899
0.034634
0.032179
0.031116
0.036403
0.039091
0.037053
0.033150
0.031298
0.030561
0.032385
0.035199
0.034270
0.031505
0.030232