# vtk DataFile Version 2.0
test
ASCII
DATASET UNSTRUCTURED_GRID
POINTS 41454 float
0.750000 -0.500000 0.050000
0.750000 0.485000 0.050000
0.758949 -0.486996 0.050000
0.761779 -0.472670 0.050000
0.764159 -0.456436 0.050000
0.765477 -0.440572 0.050000
0.766593 -0.424315 0.050000
0.767362 -0.408145 0.050000
0.767967 -0.391825 0.050000
0.768368 -0.375523 0.050000
0.768615 -0.359141 0.050000
0.768690 -0.342764 0.050000
0.768602 -0.326334 0.050000
0.768343 -0.309918 0.050000
0.767902 -0.293470 0.050000
0.767275 -0.277069 0.050000
0.766455 -0.260680 0.050000
0.765454 -0.244403 0.050000
0.764316 -0.228227 0.050000
0.763086 -0.212219 0.050000
0.761884 -0.196386 0.050000
0.760760 -0.180660 0.050000
0.759813 -0.165081 0.050000
0.759045 -0.149472 0.050000
0.758455 -0.133908 0.050000
0.758019 -0.118247 0.050000
0.757684 -0.102560 0.050000
0.757429 -0.086786 0.050000
0.757215 -0.070974 0.050000
0.757028 -0.055106 0.050000
0.756850 -0.039213 0.050000
0.756678 -0.023291 0.050000
0.756505 -0.007355 0.050000
0.756330 0.008595 0.050000
0.756150 0.024550 0.050000
0.755966 0.040511 0.050000
0.755778 0.056470 0.050000
0.755585 0.072430 0.050000
0.755388 0.088383 0.050000
0.755187 0.104330 0.050000
0.754984 0.120264 0.050000
0.754780 0.136185 0.050000
0.754580 0.152081 0.050000
0.754387 0.167954 0.050000
0.754212 0.183785 0.050000
0.754064 0.199578 0.050000
0.753965 0.215308 0.050000
0.753933 0.230990 0.050000
0.754007 0.246590 0.050000
0.754208 0.262163 0.050000
0.754584 0.277660 0.050000
0.755146 0.293222 0.050000
0.755880 0.308791 0.050000
0.756761 0.324545 0.050000
0.757654 0.340458 0.050000
0.758473 0.356578 0.050000
0.759073 0.372894 0.050000
0.759359 0.389316 0.050000
0.759289 0.405804 0.050000
0.758742 0.422296 0.050000
0.757802 0.438612 0.050000
0.756077 0.454878 0.050000
0.754279 0.470206 0.050000
-0.750000 0.485000 0.050000
0.733871 0.485000 0.050000
0.717742 0.485000 0.050000
0.701613 0.485000 0.050000
0.685484 0.485000 0.050000
0.669355 0.485000 0.050000
0.653226 0.485000 0.050000
0.637097 0.485000 0.050000
0.620968 0.485000 0.050000
0.604839 0.485000 0.050000
0.588710 0.485000 0.050000
0.572581 0.485000 0.050000
0.556452 0.485000 0.050000
0.540323 0.485000 0.050000
0.524194 0.485000 0.050000
0.508065 0.485000 0.050000
0.491935 0.485000 0.050000
0.475807 0.485000 0.050000
0.459677 0.485000 0.050000
0.443548 0.485000 0.050000
0.427419 0.485000 0.050000
0.411290 0.485000 0.050000
0.395161 0.485000 0.050000
0.379032 0.485000 0.050000
0.362903 0.485000 0.050000
0.346774 0.485000 0.050000
0.330645 0.485000 0.050000
0.314516 0.485000 0.050000
0.298387 0.485000 0.050000
0.282258 0.485000 0.050000
0.266129 0.485000 0.050000
0.250000 0.485000 0.050000
0.233871 0.485000 0.050000
0.217742 0.485000 0.050000
0.201613 0.485000 0.050000
0.185484 0.485000 0.050000
0.169355 0.485000 0.050000
0.153226 0.485000 0.050000
0.137097 0.485000 0.050000
0.120968 0.485000 0.050000
0.104839 0.485000 0.050000
0.088710 0.485000 0.050000
0.072581 0.485000 0.050000
0.056452 0.485000 0.050000
0.040323 0.485000 0.050000
0.024194 0.485000 0.050000
0.008065 0.485000 0.050000
-0.008065 0.485000 0.050000
-0.024194 0.485000 0.050000
-0.040323 0.485000 0.050000
-0.056452 0.485000 0.050000
-0.072581 0.485000 0.050000
-0.088710 0.485000 0.050000
-0.104839 0.485000 0.050000
-0.120968 0.485000 0.050000
-0.137097 0.485000 0.050000
-0.153226 0.485000 0.050000
-0.169355 0.485000 0.050000
-0.185484 0.485000 0.050000
-0.201613 0.485000 0.050000
-0.217742 0.485000 0.050000
-0.233871 0.485000 0.050000
-0.250000 0.485000 0.050000
-0.266129 0.485000 0.050000
-0.282258 0.485000 0.050000
-0.298387 0.485000 0.050000
-0.314516 0.485000 0.050000
-0.330645 0.485000 0.050000
-0.346774 0.485000 0.050000
-0.362903 0.485000 0.050000
-0.379032 0.485000 0.050000
-0.395161 0.485000 0.050000
-0.411290 0.485000 0.050000
-0.427419 0.485000 0.050000
-0.443548 0.485000 0.050000
-0.459677 0.485000 0.050000
-0.475807 0.485000 0.050000
-0.491935 0.485000 0.050000
-0.508065 0.485000 0.050000
-0.524194 0.485000 0.050000
-0.540323 0.485000 0.050000
-0.556452 0.485000 0.050000
-0.572581 0.485000 0.050000
-0.588710 0.485000 0.050000
-0.604839 0.485000 0.050000
-0.620968 0.485000 0.050000
-0.637097 0.485000 0.050000
-0.653226 0.485000 0.050000
-0.669355 0.485000 0.050000
-0.685484 0.485000 0.050000
-0.701613 0.485000 0.050000
-0.717742 0.485000 0.050000
-0.733871 0.485000 0.050000
-0.750000 -0.500000 0.050000
-0.753729 0.469981 0.050000
-0.755382 0.454574 0.050000
-0.756988 0.438243 0.050000
-0.757902 0.421921 0.050000
-0.758462 0.405369 0.050000
-0.758598 0.388896 0.050000
-0.758435 0.372413 0.050000
-0.757992 0.356079 0.050000
-0.757382 0.339862 0.050000
-0.756657 0.323810 0.050000
-0.755939 0.307924 0.050000
-0.755267 0.292125 0.050000
-0.754709 0.276448 0.050000
-0.754274 0.260759 0.050000
-0.753957 0.245115 0.050000
-0.753749 0.229415 0.050000
-0.753620 0.213708 0.050000
-0.753559 0.197948 0.050000
-0.753541 0.182168 0.050000
-0.753559 0.166350 0.050000
-0.753600 0.150516 0.050000
-0.753660 0.134658 0.050000
-0.753733 0.118792 0.050000
-0.753817 0.102912 0.050000
-0.753911 0.087032 0.050000
-0.754012 0.071142 0.050000
-0.754121 0.055256 0.050000
-0.754235 0.039364 0.050000
-0.754352 0.023481 0.050000
-0.754469 0.007600 0.050000
-0.754586 -0.008263 0.050000
-0.754704 -0.024109 0.050000
-0.754830 -0.039918 0.050000
-0.754971 -0.055691 0.050000
-0.755147 -0.071405 0.050000
-0.755374 -0.087068 0.050000
-0.755686 -0.102649 0.050000
-0.756105 -0.118186 0.050000
-0.756677 -0.133632 0.050000
-0.757425 -0.149087 0.050000
-0.758373 -0.164492 0.050000
-0.759530 -0.180000 0.050000
-0.760839 -0.195574 0.050000
-0.762273 -0.211319 0.050000
-0.763718 -0.227242 0.050000
-0.765115 -0.243325 0.050000
-0.766381 -0.259587 0.050000
-0.767472 -0.275938 0.050000
-0.768367 -0.292397 0.050000
-0.769048 -0.308881 0.050000
-0.769526 -0.325407 0.050000
-0.769789 -0.341929 0.050000
-0.769858 -0.358443 0.050000
-0.769708 -0.374951 0.050000
-0.769367 -0.391401 0.050000
-0.768769 -0.407866 0.050000
-0.767967 -0.424186 0.050000
-0.766748 -0.440597 0.050000
-0.765285 -0.456591 0.050000
-0.762622 -0.472962 0.050000
-0.759516 -0.487282 0.050000
-0.733871 -0.500000 0.050000
-0.717742 -0.500000 0.050000
-0.701613 -0.500000 0.050000
-0.685484 -0.500000 0.050000
-0.669355 -0.500000 0.050000
-0.653226 -0.500000 0.050000
-0.637097 -0.500000 0.050000
-0.620968 -0.500000 0.050000
-0.604839 -0.500000 0.050000
-0.588710 -0.500000 0.050000
-0.572581 -0.500000 0.050000
-0.556452 -0.500000 0.050000
-0.540323 -0.500000 0.050000
-0.524194 -0.500000 0.050000
-0.508065 -0.500000 0.050000
-0.491935 -0.500000 0.050000
-0.475807 -0.500000 0.050000
-0.459677 -0.500000 0.050000
-0.443548 -0.500000 0.050000
-0.427419 -0.500000 0.050000
-0.411290 -0.500000 0.050000
-0.395161 -0.500000 0.050000
-0.379032 -0.500000 0.050000
-0.362903 -0.500000 0.050000
-0.346774 -0.500000 0.050000
-0.330645 -0.500000 0.050000
-0.314516 -0.500000 0.050000
-0.298387 -0.500000 0.050000
-0.282258 -0.500000 0.050000
-0.266129 -0.500000 0.050000
-0.250000 -0.500000 0.050000
-0.233871 -0.500000 0.050000
-0.217742 -0.500000 0.050000
-0.201613 -0.500000 0.050000
-0.185484 -0.500000 0.050000
-0.169355 -0.500000 0.050000
-0.153226 -0.500000 0.050000
-0.137097 -0.500000 0.050000
-0.120968 -0.500000 0.050000
-0.104839 -0.500000 0.050000
-0.088710 -0.500000 0.050000
-0.072581 -0.500000 0.050000
-0.056452 -0.500000 0.050000
-0.040323 -0.500000 0.050000
-0.024194 -0.500000 0.050000
-0.008065 -0.500000 0.050000
0.008065 -0.500000 0.050000
0.024194 -0.500000 0.050000
0.040323 -0.500000 0.050000
0.056452 -0.500000 0.050000
0.072581 -0.500000 0.050000
0.088710 -0.500000 0.050000
0.104839 -0.500000 0.050000
0.120968 -0.500000 0.050000
0.137097 -0.500000 0.050000
0.153226 -0.500000 0.050000
0.169355 -0.500000 0.050000
0.185484 -0.500000 0.050000
0.201613 -0.500000 0.050000
0.217742 -0.500000 0.050000
0.233871 -0.500000 0.050000
0.250000 -0.500000 0.050000
0.266129 -0.500000 0.050000
0.282258 -0.500000 0.050000
0.298387 -0.500000 0.050000
0.314516 -0.500000 0.050000
0.330645 -0.500000 0.050000
0.346774 -0.500000 0.050000
0.362903 -0.500000 0.050000
0.379032 -0.500000 0.050000
0.395161 -0.500000 0.050000
0.411290 -0.500000 0.050000
0.427419 -0.500000 0.050000
0.443548 -0.500000 0.050000
0.459677 -0.500000 0.050000
0.475807 -0.500000 0.050000
0.491935 -0.500000 0.050000
0.508065 -0.500000 0.050000
0.524194 -0.500000 0.050000
0.540323 -0.500000 0.050000
0.556452 -0.500000 0.050000
0.572581 -0.500000 0.050000
0.588710 -0.500000 0.050000
0.604839 -0.500000 0.050000
0.620968 -0.500000 0.050000
0.637097 -0.500000 0.050000
0.653226 -0.500000 0.050000
0.669355 -0.500000 0.050000
0.685484 -0.500000 0.050000
0.701613 -0.500000 0.050000
0.717742 -0.500000 0.050000
0.733871 -0.500000 0.050000
0.740381 -0.483523 0.050000
0.745438 -0.469648 0.050000
0.747652 -0.454866 0.050000
0.749321 -0.439169 0.050000
0.750428 -0.423407 0.050000
0.751310 -0.407375 0.050000
0.751932 -0.391321 0.050000
0.752386 -0.375150 0.050000
0.752653 -0.358968 0.050000
0.752758 -0.342720 0.050000
0.752689 -0.326475 0.050000
0.752442 -0.310186 0.050000
0.752009 -0.293922 0.050000
0.751369 -0.277636 0.050000
0.750515 -0.261415 0.050000
0.749448 -0.245218 0.050000
0.748187 -0.229143 0.050000
0.746834 -0.213168 0.050000
0.745464 -0.197309 0.050000
0.744243 -0.181585 0.050000
0.743218 -0.165854 0.050000
0.742439 -0.150207 0.050000
0.741879 -0.134471 0.050000
0.741482 -0.118747 0.050000
0.741207 -0.102943 0.050000
0.740995 -0.087121 0.050000
0.740825 -0.071248 0.050000
0.740667 -0.055356 0.050000
0.740515 -0.039435 0.050000
0.740359 -0.023503 0.050000
0.740198 -0.007555 0.050000
0.740030 0.008398 0.050000
0.739855 0.024358 0.050000
0.739673 0.040320 0.050000
0.739484 0.056283 0.050000
0.739288 0.072243 0.050000
0.739085 0.088201 0.050000
0.738877 0.104151 0.050000
0.738661 0.120094 0.050000
0.738442 0.136023 0.050000
0.738219 0.151940 0.050000
0.737999 0.167831 0.050000
0.737787 0.183703 0.050000
0.737597 0.199536 0.050000
[...]
CELL_DATA 34596
SCALARS Mises_Stress_Abs(MPa) float 1
LOOKUP_TABLE default
17.232600
18.372100
12.767400
15.437200
16.928900
15.612400
17.272800
16.592800
11.615000
17.685900
4.586010
15.228800
8.469720
2.083680
0.675879
0.327754
0.275838
0.119612
6.249070
0.068591
0.742546
3.049340
9.327900
0.532412
0.419595
0.425327
0.219641
0.111214
9.283470
5.302660
8.225930
2.625330
3.684720
4.392000
6.619290
7.601100
5.996850
4.072610
6.627560
4.454230
6.957280
8.177900
9.283030
10.239800
4.711150
6.846380
0.437762
0.587380
0.404813
0.423504
0.215443
8.036930
9.332610
7.938700
6.154540
4.922870
8.436900
10.017100
8.557040
9.126310
9.130790
8.160120
8.716290
2.828210
7.969520
9.045050
2.856070
7.189420
5.946660
0.326128
0.580271
0.600494
0.539196
0.446175
8.090010
5.700990
9.655920
18.955900
6.124100
5.972180
20.650100
19.803600
6.433800
8.989910
22.489800
6.986860
5.795760
20.784600
21.288200
10.696900
21.261800
20.563000
0.554502
0.737708
0.562585
0.688637
0.597293
4.316630
5.050430
7.746000
6.714510
9.978050
11.996000
5.479670
5.086430
8.134920
4.677400
0.735414
0.887778
0.673268
0.723232
4.767740
3.761630
3.469680
1.514070
1.962070
6.598080
4.131800
5.592120
0.646347
7.004980
6.120070
8.350550
5.387490
7.664770
4.592170
3.377220
0.970812
0.755236
0.757701
0.915120
1.011310
3.597770
4.602940
5.365320
4.927450
3.115210
5.028630
4.422040
4.324520
3.690280
4.352620
0.950485
1.217450
1.051370
0.904906
0.913075
3.791480
4.095330
2.894670
4.475010
3.983620
2.341950
3.318720
4.424870
5.870010
3.810190
1.034600
1.462790
0.923946
1.165660
1.273610
2.308310
3.572850
3.757440
4.174910
2.958350
1.045430
1.301870
1.500230
1.560570
1.156810
1.480280
3.949250
4.384790
3.827920
1.554020
2.862660
3.194750
2.823400
4.404170
2.148050
1.583800
1.451820
1.380540
2.023420
1.111510
3.101290
3.984460
4.453910
3.750580
2.679740
2.983460
2.372650
2.694830
1.992600
3.188090
1.561830
1.735910
1.897540
1.223280
3.954240
1.920710
3.450460
4.269660
4.012990
4.623520
2.398380
2.191430
3.080410
1.825050
2.296250
1.276750
1.868340
1.960830
2.200160
4.411730
2.679980
5.387700
4.825200
6.330210
4.072080
1.947250
2.183740
2.235310
1.706550
1.903170
2.190390
2.644920
2.317250
2.228120
2.192830
5.698370
5.777690
4.508510
5.150110
1.952500
1.588140
7.141270
1.767730
1.497730
1.787060
4.645230
2.930300
2.159970
4.069020
3.142970
9.155500
5.261190
5.113300
8.560470
7.355970
1.452850
1.383760
1.308970
1.344470
1.597790
7.142920
3.251730
3.247710
3.396590
5.655220
9.291540
3.744660
6.198490
11.251800
6.493200
1.078780
1.312140
1.159950
1.074850
1.245610
7.869130
15.333200
4.591040
13.790000
15.616600
3.795380
4.470100
13.839600
14.095200
6.076590
5.356700
6.694270
16.380000
7.844970
15.594900
6.095380
8.850410
1.032270
0.877923
1.022210
1.054970
0.629611
4.441100
9.016110
7.920150
3.593250
4.953860
5.972910
7.575390
8.779300
8.608220
3.434890
6.795400
5.600610
5.826170
7.850840
8.150130
6.957050
7.606830
0.865670
0.459817
0.681452
0.803857
0.803831
4.349220
6.424010
4.212600
5.238680
3.705070
1.143020
6.302980
8.441270
1.736240
5.250930
5.064780
2.092840
8.653750
1.144330
3.694720
6.858100
2.125290
0.212057
0.495462
0.672192
0.634534
0.599383
5.443180
3.485420
4.813270
4.868480
5.711350
5.503820
6.491370
5.778810
5.694370
5.703970
2.613080
5.715560
6.551430
7.827670
7.418190
5.855960
7.219070
0.152812
0.592289
0.320676
0.416001
0.435477
1.934640
12.058800
3.625850
11.738000
9.051350
7.540900
5.129200
10.407300
12.719400
11.540100
12.831400
2.572960
9.916840
4.887420
8.021070
0.907710
11.553700
0.451547
0.326283
0.202013
0.483746
0.142569
0.008708
2.207530
3.693760
1.067030
1.385950
3.092560
2.155580
1.888680
1.043940
1.787080
1.016670
1.264920
0.759876
0.782091
1.503330
1.159700
0.760107
1.096320
0.785168
0.892779
0.875717
3.094930
3.332770
2.327590
2.960250
2.468180
2.506140
2.164970
2.587840
3.161600
1.747380
0.872487
2.107290
3.072700
1.183180
0.621461
0.805985
2.394960
1.648980
2.855550
2.729070
2.975530
1.330850
1.399780
0.839424
1.339990
0.781482
1.336560
1.007460
1.344130
1.241280
1.660950
1.795440
1.556870
0.442199
1.062210
0.671991
0.632991
1.091620
0.907107
0.862405
0.977263
0.613945
0.864256
1.486110
0.850736
0.974393
1.002780
1.097710
0.989452
1.703880
1.245090
1.181190
1.533370
1.235820
1.489050
1.434830
0.975279
0.468982
2.404530
1.844780
2.035990
2.056100
1.597100
2.103260
2.111230
2.290170
0.994826
2.564690
1.782910
2.187400
2.396400
1.172720
2.265070
1.758170
2.276480
1.743430
2.146370
1.912180
2.001890
1.479930
2.353060
1.998740
2.212010
1.811430
2.153620
1.756960
1.596690
0.640554
1.273610
1.750900
4.356130
4.432560
1.923620
2.650900
2.089310
3.252490
2.720710
3.728130
5.253840
4.927000
5.176730
3.828920
4.403160
3.740070
3.076360
3.298910
3.572760
5.062970
1.657800
1.904510
1.681020
2.272390
1.075560
1.042060
2.196920
2.837350
3.243200
3.698860
4.153820
1.163180
1.348210
0.000710
0.000386
3.178970
2.613360
2.257110
2.477040
2.413850
3.309630
0.951499
0.001234
0.002360
1.070550
3.137770
1.530320
0.000670
3.500060
0.001243
0.501849
0.536886
1.781630
1.098860
0.890110
0.002102
0.537043
1.780320
3.418380
1.459110
0.004266
1.781150
3.526420
0.741679
0.000676
1.213170
0.001052
0.507715
1.222660
0.317401
0.153213
3.348760
0.001846
1.652840
1.970210
0.003841
3.705790
1.694620
0.000680
0.455609
1.123190
1.174080
0.000937
0.456536
0.629914
0.001840
0.155161
1.941770
3.410850
0.003747
1.587520
0.000657
0.000951
3.640780
1.773360
1.391760
1.843610
0.768044
2.206760
2.431790
0.000683
0.003685
3.282000
0.001796
1.603480
0.501424
1.772120
1.705960
3.569430
1.359060
0.001143
0.000683
0.000457
3.220480
4.517710
4.241020
0.003643
3.008580
0.001787
1.642060
1.681880
0.567583
1.743770
3.352980
0.001796
0.000365
0.001099
0.001689
3.745120
4.700990
3.172230
0.003629
3.385370
5.561610
0.959714
1.535600
0.001780
1.239050
2.805190
3.051110
1.667450
2.232400
0.001713
0.001227
0.000507
2.027500
0.002183
0.003621
2.119590
4.047770
5.245670
0.000569
0.001781
2.215270
1.657260
1.057000
1.123100
2.669850
1.699350
5.114430
0.000936
0.002120
0.497241
2.210290
8.146000
5.568990
7.477670
0.003574
3.930510
2.015090
2.175370
0.001749
1.432940
0.705031
1.463700
1.483050
1.531380
2.235750
0.001001
5.120940
3.701430
3.667070
1.968210
3.458370
1.126660
1.851980
0.330237
0.003592
0.000686
1.811240
0.001701
0.685402
1.644340
2.775030
3.775410
2.620710
1.848750
2.642760
3.726760
3.734730
2.924920
1.299600
1.563390
0.654452
1.338900
0.348597
1.165070
0.845036
0.279526
1.542370
1.485380
0.000866
0.001838
1.899480
2.442330
3.703900
1.249440
2.529970
2.168420
3.638590
2.691200
2.670520
3.911180
2.958770
3.961650
4.334000
2.200930
0.491804
4.321160
4.032420
2.668280
4.003030
1.334530
4.115860
5.125510
2.248140
1.501110
4.558710
2.191100
3.965710
4.023060
4.789590
6.326310
1.529700
6.644020
2.888000
2.107860
2.010010
2.545970
1.612670
1.812660
0.411394
2.236210
1.921720
2.235570
1.897720
1.365020
1.465400
1.409310
2.071150
2.249060
2.880210
2.408310
1.932200
1.911830
2.012510
1.007380
1.159080
0.002367
0.592531
2.032110
1.697240
1.207540
4.758070
5.466020
5.910650
3.560530
5.276390
3.222280
3.814650
0.609362
2.272400
1.096030
2.483610
2.895730
1.353230
1.007680
1.753810
1.870510
1.735310
0.808106
1.031130
1.822230
0.741851
2.209350
0.681166
1.345890
2.380960
1.388580
1.280880
2.604960
4.005450
1.241430
2.559300
2.208210
1.749190
1.518990
2.657050
4.019940
3.835350
1.626860
1.530130
2.284840
1.885030
2.301570
2.034490
2.831610
2.006650
2.056380
1.411600
2.198500
2.011330
1.035670
2.350850
1.288140
2.493240
2.196980
2.330420
1.201640
1.180990
0.567778
1.063950
1.632510
1.065460
2.816680
0.954735
2.321360
2.236930
0.600719
2.095040
1.448010
0.971590
1.724560
1.210390
0.754258
0.932435
1.732250
1.392160
0.820191
0.907686
2.222310
1.271420
0.767606
1.273600
0.836112
1.483670
0.803837
1.110850
1.354300
0.849013
1.039680
0.560585
1.644200
0.830165
1.094760
1.588940
1.666990
1.204500
0.604433
0.916091
0.679383
0.951507
1.179600
0.643953
0.654756
0.857115
1.228170
0.972512
0.857321
1.107180
0.831648
0.952449
0.502207
0.732421
0.993601
0.453049
0.293063
0.908007
0.439485
0.423809
0.405947
0.449134
0.188636
0.582404
0.935109
0.554564
0.577574
0.529062
0.402293
0.344165
0.626241
1.096460
0.439998
0.986381
1.126120
0.970939
0.725029
0.242988
0.228074
0.561898
0.777373
0.326353
1.376600
1.887480
3.862690
0.457851
0.485269
0.406227
0.786497
1.021280
1.678940
0.940271
2.060790
2.058150
0.001802
1.389690
0.001648
0.002043
3.272130
4.068330
2.008430
2.207090
2.625390
0.001936
0.002108
1.158350
0.001810
1.851560
1.857420
1.586200
3.473230
2.411700
1.356730
0.002198
0.992775
0.002281
0.001834
2.004860
1.605760
1.566730
2.893270
0.396126
0.475370
0.002688
1.167440
0.802701
0.001860
0.002316
2.403730
1.312810
1.311160
1.747860
0.001893
0.002443
0.798461
0.003119
0.693019
1.899120
1.134750
1.468300
1.171540
0.545036
0.669706
0.001899
0.003629
0.002588
1.589210
0.892861
1.005290
1.170490
0.004115
0.001894
0.002697
0.775685
1.099460
0.984820
0.811697
0.004710
0.002808
0.281996
0.433819
0.001843
0.638993
0.656064
0.666621
1.059190
0.405369
0.678617
0.548440
0.456498
0.243122
0.483102
0.506333
1.078980
5.638070
3.707720
3.163590
7.208940
4.701160
2.120220
0.002052
0.001230
3.774350
1.999720
6.718650
3.261930
3.949520
5.800160
0.001289
2.863680
1.893220
0.001847
4.483320
2.949000
3.352760
5.456350
2.467250
1.581910
2.737510
0.001422
0.002008
0.001810
4.270680
3.183040
4.850270
2.487630
1.820890
2.844520
5.453730
5.571950
5.761830
3.763620
5.727150
5.877560
4.697180
5.004380
6.024230
6.306600
7.042320
6.296160
7.087460
6.765610
6.557170
7.416350
6.770710
6.943630
6.071970
6.526890
1.034470
6.483100
6.895600
4.020610
2.589040
1.578510
7.222470
7.519330
5.381840
3.446250
3.619330
2.797870
3.005870
3.182380
3.273100
3.229700
3.098710
3.045730
2.984860
2.827170
3.219400
3.721430
3.521650
3.991920
3.714350
3.758320
3.344310
3.385820
3.635480
3.474250
3.606700
3.741380
4.217910
4.953000
1.757170
4.326400
4.519510
3.355250
4.647490
3.806580
7.987950
2.973730
7.733330
7.138470
7.923460
4.027890
3.646470
0.473540
0.573147
0.641064
0.516009
1.468610
0.714970
1.028460
0.392354
0.317526
2.416650
0.543174
0.400951
0.451640
0.613680
0.573957
0.340656
0.508322
0.306518
0.648225
1.116160
0.648153
1.511410
4.761710
2.923790
3.816990
4.998110
5.369340
5.592780
2.774530
4.192800
1.947570
1.090160
2.680080
2.870060
2.566710
2.420050
2.615640
2.826480
2.701680
2.809950
2.745910
2.801840
2.840210
2.922360
3.130000
2.798480
2.100190
3.000160
3.008240
3.118080
3.140730
1.106580
2.895390
6.325720
5.754410
5.701150
3.482510
5.322170
4.945660
5.228530
4.027740
5.006540
2.745890
1.981630
5.265820
5.711510
5.575070
5.685010
5.860890
5.452520
6.015320
5.489230
5.849590
5.980500
6.178190
6.358470
6.176960
6.077540
6.142330
6.703530
3.575400
6.618790
2.870720
6.560340
5.508070
5.614950
7.371560
5.800590
9.019770
8.184040
8.539620
7.728000
8.765250
8.833560
9.078060
9.274340
8.505620
8.224510
9.112510
9.526940
9.387650
10.585000
10.646000
9.753260
9.936010
9.360900
5.285250
3.985980
9.270380
5.770070
8.153960
3.965410
6.087360
0.000950
3.028120
0.001577
4.156130
9.020880
2.851490
5.439430
8.517200
0.001441
5.127540
0.002505
3.689190
4.631970
3.452810
7.755890
8.453220
5.421520
2.422730
3.649810
0.001243
0.002156
0.001535
0.002361
0.002073
0.001920
0.003145
0.002793
0.002064
0.005734
0.003939
0.075191
0.257412
0.151260
0.005112
0.156034
2.190110
2.932990
1.873370
1.307780
1.084970
0.653947
0.476180
0.229334
0.124633
0.160209
0.112494
0.031892
0.021919
0.006865
0.005950
0.062810
0.040301
0.018636
0.011572
0.004925
0.003435
0.018562
0.026530
0.013265
0.005786
0.003534
0.002871
0.014266
0.025565
0.017547
0.008891
0.005896
0.004499
0.012152
0.024498
0.020209
0.012795
0.008553
0.006401
0.012022
0.023578
0.021505
0.015164
0.010713
0.008140
0.012890
0.022746
0.021892
0.016584
0.012188
0.009576
0.013361
0.021981
0.021868
0.017297
0.013143
0.010592
0.014032
0.021314
0.021548
0.017554
0.013613
0.011164
0.014352
0.020630
0.021024
0.017416
0.013657
0.011274
0.014541
0.019863
0.020254
0.016922
0.013272
0.010915
0.014303
0.018870
0.019196
0.016045
0.012459
0.010074
0.013692
0.017540
0.017754
0.014767
0.011207
0.008745
0.012406
0.015718
0.015884
0.013082
0.009559
0.006953
0.010648
0.013432
0.013603
0.011110
0.007675
0.004855
0.008681
0.011008
0.011278
0.009241
0.006098
0.003175
0.008276
0.009785
0.009945
0.008409
0.005991
0.003965
0.011263
0.011538
0.010937
0.009556
0.007867
0.006718
0.015803
0.015497
0.014037
0.012229
0.010725
0.009850
0.020547
0.019921
0.017726
0.015284
0.013650
0.012774
0.024265
0.023529
0.020837
0.017951
0.016119
0.015201
0.026083
0.025626
0.022919
0.019778
0.017898
0.016961
0.026561
0.026292
0.023737
0.020712
0.018895
0.018017
0.025541
0.025654
0.023530
0.020797
0.019185
0.018409
0.023694
0.024145
0.022548
0.020240
0.018892
0.018253
0.021490
0.022186
0.021078
0.019252
0.018181
0.017690
0.019124
0.020045
0.019410
0.018013
0.017217
0.016860
0.016961
0.017985
0.017701
0.016703
0.016134
0.015897
0.015004
0.016114
0.016122
0.015425
0.015048
0.014905
0.013423
0.014547
0.014741
0.014279
0.014036
0.013964
0.012183
0.013311
0.013626
0.013308
0.013154
0.013125
0.011318
0.012417
0.012783
0.012538
0.012425
0.012419
0.010770
0.011834
0.012198
0.011964
0.011857
0.011855
0.010457
0.011492
0.011831
0.011565
0.011439
0.011430
0.010326
0.011337
0.011631
0.011314
0.011154
0.011132
0.010289
0.011304
0.011563
0.011182
0.010986
0.010948
0.010344
0.011375
0.011597
0.011153
0.010920
0.010868
0.010477
0.011541
0.011730
0.011217
0.010947
0.010880
0.010708
0.011815
0.011964
0.011371
0.011061
0.010976
0.011073
0.012219
0.012304
0.011615
0.011254
0.011148
0.011577
0.012765
0.012760
0.011943
0.011519
0.011382
0.012271
0.013471
0.013327
0.012349
0.011838
0.011660
0.013126
0.014329
0.013999
0.012807
0.012186
0.011954
0.014185
0.015328
0.014734
0.013287
0.012522
0.012220
0.015343
0.016400
0.015487
0.013722
0.012793
0.012403
0.016593
0.017460
0.016136
0.014042
0.012918
0.012428
0.017655
0.018305
0.016566
0.014123
0.012809
0.012210
0.018346
0.018718
0.016563
0.013850
0.012365
0.011659
0.018345
0.018398
0.015937
0.013110
0.011503
0.010699
0.017128
0.017050
0.014570
0.011837
0.010204
0.009289
0.014988
0.014726
0.012451
0.010191
0.008549
0.007465
0.011746
0.011624
0.010081
0.008581
0.006884
0.005369
0.008533
0.008813
0.008468
0.007896
0.005864
0.003386
0.007449
0.008055
0.008772
0.008687
0.006144
0.002508
0.008494
0.009365
0.010521
0.010398
0.007359
0.003370
0.010270
0.011165
0.012389
0.012106
0.008642
0.004555
0.010820
0.011790
0.013207
0.013206
0.009441
0.005246
0.010182
0.011142
0.012987
0.013419
0.009422
0.005269
0.007641
0.008526
0.010971
0.012762
0.008540
0.004645
0.010228
0.009534
0.009984
0.011872
0.006840
0.003803
0.028882
0.029048
0.026482
0.017819
0.007823
0.002892
0.059795
0.059423
0.063660
0.046763
0.010470
0.004844
0.160317
0.123333
0.036291
0.021322
0.009890
0.005241
0.105143
0.071604
0.032757
0.015436
0.008557
0.004168
0.053277
0.043805
0.025947
0.013787
0.008731
0.006191
0.025704
0.031153
0.022940
0.014011
0.009627
0.007609
0.017059
0.025954
0.021672
0.014491
0.010170
0.007880
0.011403
0.022776
0.020966
0.014809
0.010233
0.007501
0.009476
0.020845
0.020268
0.014866
0.010101
0.006912
0.008770
0.019434
0.019572
0.014729
0.009883
0.006366
0.018350
0.018863
0.014452
0.009620
0.005897
0.009006
0.017468
0.018139
0.014067
0.009298
0.005457
0.009277
0.016690
0.017389
0.013582
0.008909
0.005000
0.009795
0.016006
0.016595
0.013016
0.008479
0.004569
0.010374
0.015403
0.015783
0.012412
0.008097
0.004349
0.011690
0.015091
0.015023
0.011878
0.007922
0.004627
0.013593
0.015246
0.014521
0.011586
0.008144
0.005557
0.016450
0.016269
0.014554
0.011721
0.008882
0.006985
0.019984
0.018180
0.015262
0.012415
0.010028
0.008643
0.022717
0.020331
0.016663
0.013487
0.011388
0.010274
0.025236
0.022437
0.018143
0.014729
0.012713
0.011716
0.025599
0.023567
0.019446
0.015852
0.013847
0.012896
0.025068
0.023970
0.020374
0.016689
0.014752
0.013808
0.024413
0.023972
0.020748
0.017281
0.015384
0.014489
0.023048
0.023382
0.020792
0.017513
0.015780
0.014938
0.021834
0.022474
0.020367
0.017457
0.015899
0.015157
0.020526
0.021266
0.019560
0.017097
0.015758
0.015133
0.018846
0.019734
0.018510
0.016467
0.015384
0.014883
0.017260
0.018120
0.017248
0.015669
0.014819
0.014447
0.015501
0.016440
0.015949
0.014757
0.014138
0.013877
0.013928
0.014876
0.014668
0.013836
0.013403
0.013238
0.012461
0.013475
0.013530
0.012963
0.012681
0.012588
0.011316
0.012356
0.012580
0.012204
0.012019
0.011975
0.010502
0.011554
0.011864
0.011585
0.011451
0.011432
0.010008
0.011047
0.011380
0.011115
0.010991
0.010979
0.009786
0.010790
0.011078
0.010783
0.010638
0.010621
0.009667
0.010666
0.010920
0.010560
0.010385
0.010355
0.009646
0.010645
0.010851
0.010430
0.010218
0.010175
0.009644
0.010681
0.010863
0.010375
0.010132
0.010075
0.009714
0.010795
0.010951
0.010396
0.010117
0.010048
0.009875
0.011006
0.011123
0.010489
0.010171
0.010086
0.010143
0.011331
0.011391
0.010652
0.010285
0.010180
0.010567
0.011793
0.011753
0.010881
0.010450
0.010317
0.011114
0.012387
0.012214
0.011164
0.010650
0.010479
0.011841
0.013124
0.012752
0.011485
0.010862
0.010642
0.012649
0.013965
0.013357
0.011812
0.011060
0.010777
0.013625
0.014898
0.013968
0.012115
0.011206
0.010849
0.014558
0.015822
0.014554
0.012339
0.011268
0.010825
0.015622
0.016721
0.015001
0.012454
0.011208
0.010678
0.016568
0.017439
0.015293
0.012418
0.011013
0.010391
0.017496
0.017977
0.015364
0.012226
0.010687
0.009965
0.018778
0.018388
0.015166
0.011949
0.010238
0.009407
0.019499
0.018385
0.014857
0.011575
0.009724
0.008700
0.019914
0.018036
0.014279
0.011243
0.009130
0.007816
0.019486
0.017066
0.013553
0.010957
0.008518
0.006689
0.016843
0.015069
0.012788
0.010826
0.007958
0.005311
0.013735
0.012862
0.012153
0.011011
0.007637
0.003814
0.009157
0.010429
0.011879
0.011526
0.007777
0.002829
0.005039
0.008954
0.012090
0.012393
0.008478
0.003537
0.006027
0.009835
0.013105
0.013684
0.009641
0.005445
0.014244
0.014945
0.015801
0.015606
0.011136
0.007323
0.028663
0.027686
0.024422
0.020025
0.012649
0.007994
0.050547
0.049261
0.044036
0.030175
0.013760
0.006497
0.060402
0.059332
0.061723
0.050280
0.012568
0.005376
0.138511
0.118175
0.038130
0.022526
0.010563
0.006284
0.092104
0.071544
0.041815
0.019814
0.012335
0.006865
0.067475
0.054521
0.033619
0.020536
0.013471
0.010074
0.041462
0.039879
0.029330
0.019716
0.014479
0.011752
0.025918
0.031165
0.026054
0.018821
0.014287
0.011895
0.018584
0.026048
0.023566
0.017678
0.013362
0.010901
0.013196
0.022497
0.021664
0.016476
0.012064
0.009303
0.010306
0.020078
0.020082
0.015349
0.010702
0.007465
0.008309
0.018273
0.018792
0.014351
0.009470
0.005620
0.007383
0.016970
0.017734
0.013536
0.008500
0.003963
0.007330
0.016065
0.016912
0.012938
0.007910
0.002912
0.008087
0.015585
0.016346
0.012609
0.007817
0.003207
0.010035
0.015666
0.016101
0.012613
0.008287
0.004669
0.012752
0.016448
0.016294
0.013006
0.009279
0.006596
0.016969
0.018278
0.017024
0.013805
0.010643
0.008635
0.021973
0.021076
0.018333
0.014946
0.012137
0.010574
0.027123
0.024497
0.020154
0.016153
0.013550
0.012194
0.032001
0.027841
0.021785
0.017257
0.014579
0.013337
0.033157
0.029350
0.022962
0.017795
0.015116
0.013902
0.032641
0.029266
0.022988
0.017714
0.015139
0.013949
0.029961
0.027733
0.022083
0.017221
0.014780
0.013683
0.025641
0.025266
0.021062
0.016462
0.014356
0.013315
0.022922
0.023235
0.019838
0.015859
0.013953
0.013033
0.020672
0.021455
0.018748
0.015323
0.013661
0.012858
0.018674
0.019749
0.017756
0.014811
0.013409
0.012735
0.017329
0.018245
0.016654
0.014287
0.013113
0.012582
0.015720
0.016666
0.015550
0.013655
0.012745
0.012341
0.014289
0.015132
0.014359
0.012966
0.012283
0.012003
0.012646
0.013570
0.013215
0.012230
0.011766
0.011587
0.011197
0.012178
0.012148
0.011530
0.011230
0.011133
0.009943
0.011034
0.011278
0.010906
0.010724
0.010680
0.009116
0.010262
0.010652
0.010403
0.010280
0.010263
0.008773
0.009893
0.010268
0.010035
0.009914
0.009903
0.008666
0.009758
0.010085
0.009774
0.009630
0.009607
0.008727
0.009766
0.009988
0.009601
0.009413
0.009377
0.008682
0.009757
0.009950