# vtk DataFile Version 2.0
test
ASCII
DATASET UNSTRUCTURED_GRID
POINTS 41454 float
0.750000 -0.500000 0.050000
0.750000 0.455000 0.050000
0.771937 -0.502111 0.050000
0.778742 -0.489129 0.050000
0.788788 -0.472325 0.050000
0.793252 -0.455921 0.050000
0.797426 -0.438579 0.050000
0.800058 -0.421678 0.050000
0.802225 -0.404377 0.050000
0.803629 -0.387239 0.050000
0.804551 -0.369897 0.050000
0.804894 -0.352630 0.050000
0.804728 -0.335254 0.050000
0.804016 -0.317968 0.050000
0.802756 -0.300663 0.050000
0.800941 -0.283546 0.050000
0.798568 -0.266552 0.050000
0.795703 -0.249945 0.050000
0.792443 -0.233666 0.050000
0.788988 -0.217966 0.050000
0.785616 -0.202695 0.050000
0.782488 -0.187812 0.050000
0.779884 -0.173234 0.050000
0.777756 -0.158599 0.050000
0.776131 -0.144041 0.050000
0.774920 -0.129242 0.050000
0.773995 -0.114327 0.050000
0.773273 -0.099200 0.050000
0.772660 -0.083940 0.050000
0.772109 -0.068546 0.050000
0.771577 -0.053069 0.050000
0.771050 -0.037524 0.050000
0.770513 -0.021939 0.050000
0.769964 -0.006325 0.050000
0.769400 0.009302 0.050000
0.768820 0.024938 0.050000
0.768225 0.040569 0.050000
0.767614 0.056193 0.050000
0.766991 0.071796 0.050000
0.766356 0.087376 0.050000
0.765715 0.102916 0.050000
0.765073 0.118410 0.050000
0.764444 0.133832 0.050000
0.763841 0.149176 0.050000
0.763292 0.164406 0.050000
0.762837 0.179511 0.050000
0.762523 0.194460 0.050000
0.762429 0.209239 0.050000
0.762624 0.223862 0.050000
0.763206 0.238333 0.050000
0.764261 0.252716 0.050000
0.765834 0.267169 0.050000
0.767867 0.281764 0.050000
0.770310 0.296725 0.050000
0.772841 0.312269 0.050000
0.775137 0.328363 0.050000
0.776879 0.345103 0.050000
0.777678 0.362237 0.050000
0.777482 0.379553 0.050000
0.775840 0.396978 0.050000
0.773080 0.413839 0.050000
0.767845 0.430500 0.050000
0.762602 0.444639 0.050000
-0.750000 0.455000 0.050000
0.733871 0.455000 0.050000
0.717742 0.455000 0.050000
0.701613 0.455000 0.050000
0.685484 0.455000 0.050000
0.669355 0.455000 0.050000
0.653226 0.455000 0.050000
0.637097 0.455000 0.050000
0.620968 0.455000 0.050000
0.604839 0.455000 0.050000
0.588710 0.455000 0.050000
0.572581 0.455000 0.050000
0.556452 0.455000 0.050000
0.540323 0.455000 0.050000
0.524194 0.455000 0.050000
0.508065 0.455000 0.050000
0.491935 0.455000 0.050000
0.475807 0.455000 0.050000
0.459677 0.455000 0.050000
0.443548 0.455000 0.050000
0.427419 0.455000 0.050000
0.411290 0.455000 0.050000
0.395161 0.455000 0.050000
0.379032 0.455000 0.050000
0.362903 0.455000 0.050000
0.346774 0.455000 0.050000
0.330645 0.455000 0.050000
0.314516 0.455000 0.050000
0.298387 0.455000 0.050000
0.282258 0.455000 0.050000
0.266129 0.455000 0.050000
0.250000 0.455000 0.050000
0.233871 0.455000 0.050000
0.217742 0.455000 0.050000
0.201613 0.455000 0.050000
0.185484 0.455000 0.050000
0.169355 0.455000 0.050000
0.153226 0.455000 0.050000
0.137097 0.455000 0.050000
0.120968 0.455000 0.050000
0.104839 0.455000 0.050000
0.088710 0.455000 0.050000
0.072581 0.455000 0.050000
0.056452 0.455000 0.050000
0.040323 0.455000 0.050000
0.024194 0.455000 0.050000
0.008065 0.455000 0.050000
-0.008065 0.455000 0.050000
-0.024194 0.455000 0.050000
-0.040323 0.455000 0.050000
-0.056452 0.455000 0.050000
-0.072581 0.455000 0.050000
-0.088710 0.455000 0.050000
-0.104839 0.455000 0.050000
-0.120968 0.455000 0.050000
-0.137097 0.455000 0.050000
-0.153226 0.455000 0.050000
-0.169355 0.455000 0.050000
-0.185484 0.455000 0.050000
-0.201613 0.455000 0.050000
-0.217742 0.455000 0.050000
-0.233871 0.455000 0.050000
-0.250000 0.455000 0.050000
-0.266129 0.455000 0.050000
-0.282258 0.455000 0.050000
-0.298387 0.455000 0.050000
-0.314516 0.455000 0.050000
-0.330645 0.455000 0.050000
-0.346774 0.455000 0.050000
-0.362903 0.455000 0.050000
-0.379032 0.455000 0.050000
-0.395161 0.455000 0.050000
-0.411290 0.455000 0.050000
-0.427419 0.455000 0.050000
-0.443548 0.455000 0.050000
-0.459677 0.455000 0.050000
-0.475807 0.455000 0.050000
-0.491935 0.455000 0.050000
-0.508065 0.455000 0.050000
-0.524194 0.455000 0.050000
-0.540323 0.455000 0.050000
-0.556452 0.455000 0.050000
-0.572581 0.455000 0.050000
-0.588710 0.455000 0.050000
-0.604839 0.455000 0.050000
-0.620968 0.455000 0.050000
-0.637097 0.455000 0.050000
-0.653226 0.455000 0.050000
-0.669355 0.455000 0.050000
-0.685484 0.455000 0.050000
-0.701613 0.455000 0.050000
-0.717742 0.455000 0.050000
-0.733871 0.455000 0.050000
-0.750000 -0.500000 0.050000
-0.761251 0.443611 0.050000
-0.766144 0.429368 0.050000
-0.771071 0.412597 0.050000
-0.773794 0.395760 0.050000
-0.775510 0.378233 0.050000
-0.775929 0.360966 0.050000
-0.775467 0.343669 0.050000
-0.774189 0.326890 0.050000
-0.772412 0.310418 0.050000
-0.770322 0.294559 0.050000
-0.768249 0.279082 0.050000
-0.766297 0.263965 0.050000
-0.764677 0.249115 0.050000
-0.763386 0.234308 0.050000
-0.762440 0.219575 0.050000
-0.761806 0.204751 0.050000
-0.761417 0.189866 0.050000
-0.761225 0.174868 0.050000
-0.761176 0.159786 0.050000
-0.761232 0.144610 0.050000
-0.761365 0.129371 0.050000
-0.761552 0.114069 0.050000
-0.761781 0.098732 0.050000
-0.762042 0.083357 0.050000
-0.762331 0.067969 0.050000
-0.762642 0.052557 0.050000
-0.762972 0.037150 0.050000
-0.763316 0.021728 0.050000
-0.763666 0.006324 0.050000
-0.764019 -0.009073 0.050000
-0.764368 -0.024428 0.050000
-0.764720 -0.039731 0.050000
-0.765086 -0.054945 0.050000
-0.765495 -0.070047 0.050000
-0.765992 -0.085002 0.050000
-0.766633 -0.099791 0.050000
-0.767499 -0.114383 0.050000
-0.768671 -0.128810 0.050000
-0.770263 -0.143024 0.050000
-0.772348 -0.157218 0.050000
-0.774969 -0.171284 0.050000
-0.778187 -0.185565 0.050000
-0.781831 -0.200065 0.050000
-0.785833 -0.214960 0.050000
-0.789931 -0.230425 0.050000
-0.793891 -0.246378 0.050000
-0.797540 -0.262893 0.050000
-0.800696 -0.279781 0.050000
-0.803306 -0.297024 0.050000
-0.805287 -0.314480 0.050000
-0.806657 -0.332095 0.050000
-0.807353 -0.349825 0.050000
-0.807438 -0.367554 0.050000
-0.806787 -0.385382 0.050000
-0.805537 -0.403046 0.050000
-0.803314 -0.420909 0.050000
-0.800529 -0.438332 0.050000
-0.795841 -0.456236 0.050000
-0.790922 -0.473043 0.050000
-0.779620 -0.490029 0.050000
-0.772569 -0.503358 0.050000
-0.733871 -0.500000 0.050000
-0.717742 -0.500000 0.050000
-0.701613 -0.500000 0.050000
-0.685484 -0.500000 0.050000
-0.669355 -0.500000 0.050000
-0.653226 -0.500000 0.050000
-0.637097 -0.500000 0.050000
-0.620968 -0.500000 0.050000
-0.604839 -0.500000 0.050000
-0.588710 -0.500000 0.050000
-0.572581 -0.500000 0.050000
-0.556452 -0.500000 0.050000
-0.540323 -0.500000 0.050000
-0.524194 -0.500000 0.050000
-0.508065 -0.500000 0.050000
-0.491935 -0.500000 0.050000
-0.475807 -0.500000 0.050000
-0.459677 -0.500000 0.050000
-0.443548 -0.500000 0.050000
-0.427419 -0.500000 0.050000
-0.411290 -0.500000 0.050000
-0.395161 -0.500000 0.050000
-0.379032 -0.500000 0.050000
-0.362903 -0.500000 0.050000
-0.346774 -0.500000 0.050000
-0.330645 -0.500000 0.050000
-0.314516 -0.500000 0.050000
-0.298387 -0.500000 0.050000
-0.282258 -0.500000 0.050000
-0.266129 -0.500000 0.050000
-0.250000 -0.500000 0.050000
-0.233871 -0.500000 0.050000
-0.217742 -0.500000 0.050000
-0.201613 -0.500000 0.050000
-0.185484 -0.500000 0.050000
-0.169355 -0.500000 0.050000
-0.153226 -0.500000 0.050000
-0.137097 -0.500000 0.050000
-0.120968 -0.500000 0.050000
-0.104839 -0.500000 0.050000
-0.088710 -0.500000 0.050000
-0.072581 -0.500000 0.050000
-0.056452 -0.500000 0.050000
-0.040323 -0.500000 0.050000
-0.024194 -0.500000 0.050000
-0.008065 -0.500000 0.050000
0.008065 -0.500000 0.050000
0.024194 -0.500000 0.050000
0.040323 -0.500000 0.050000
0.056452 -0.500000 0.050000
0.072581 -0.500000 0.050000
0.088710 -0.500000 0.050000
0.104839 -0.500000 0.050000
0.120968 -0.500000 0.050000
0.137097 -0.500000 0.050000
0.153226 -0.500000 0.050000
0.169355 -0.500000 0.050000
0.185484 -0.500000 0.050000
0.201613 -0.500000 0.050000
0.217742 -0.500000 0.050000
0.233871 -0.500000 0.050000
0.250000 -0.500000 0.050000
0.266129 -0.500000 0.050000
0.282258 -0.500000 0.050000
0.298387 -0.500000 0.050000
0.314516 -0.500000 0.050000
0.330645 -0.500000 0.050000
0.346774 -0.500000 0.050000
0.362903 -0.500000 0.050000
0.379032 -0.500000 0.050000
0.395161 -0.500000 0.050000
0.411290 -0.500000 0.050000
0.427419 -0.500000 0.050000
0.443548 -0.500000 0.050000
0.459677 -0.500000 0.050000
0.475807 -0.500000 0.050000
0.491935 -0.500000 0.050000
0.508065 -0.500000 0.050000
0.524194 -0.500000 0.050000
0.540323 -0.500000 0.050000
0.556452 -0.500000 0.050000
0.572581 -0.500000 0.050000
0.588710 -0.500000 0.050000
0.604839 -0.500000 0.050000
0.620968 -0.500000 0.050000
0.637097 -0.500000 0.050000
0.653226 -0.500000 0.050000
0.669355 -0.500000 0.050000
0.685484 -0.500000 0.050000
0.701613 -0.500000 0.050000
0.717742 -0.500000 0.050000
0.733871 -0.500000 0.050000
0.755353 -0.485114 0.050000
0.767500 -0.479370 0.050000
0.773498 -0.466501 0.050000
0.778843 -0.451297 0.050000
0.782142 -0.435550 0.050000
0.785006 -0.419150 0.050000
0.786943 -0.402715 0.050000
0.788431 -0.385979 0.050000
0.789298 -0.369251 0.050000
0.789683 -0.352365 0.050000
0.789517 -0.335519 0.050000
0.788820 -0.318602 0.050000
0.787557 -0.301799 0.050000
0.785703 -0.285021 0.050000
0.783242 -0.268492 0.050000
0.780191 -0.252132 0.050000
0.776632 -0.236223 0.050000
0.772789 -0.220606 0.050000
0.768934 -0.205435 0.050000
0.765496 -0.190508 0.050000
0.762596 -0.175582 0.050000
0.760393 -0.160796 0.050000
0.758799 -0.145768 0.050000
0.757680 -0.130722 0.050000
0.756896 -0.115500 0.050000
0.756301 -0.100198 0.050000
0.755803 -0.084782 0.050000
0.755336 -0.069304 0.050000
0.754869 -0.053763 0.050000
0.754385 -0.038185 0.050000
0.753879 -0.022577 0.050000
0.753348 -0.006952 0.050000
0.752793 0.008683 0.050000
0.752214 0.024321 0.050000
0.751613 0.039958 0.050000
0.750990 0.055584 0.050000
0.750346 0.071198 0.050000
0.749682 0.086787 0.050000
0.749000 0.102351 0.050000
0.748305 0.117872 0.050000
0.747603 0.133351 0.050000
0.746909 0.148762 0.050000
0.746246 0.164108 0.050000
0.745651 0.179358 0.050000
[...]
CELL_DATA 34596
SCALARS Mises_Stress_Abs(MPa) float 1
LOOKUP_TABLE default
56.062700
59.301400
41.803000
50.430000
54.796100
50.897500
55.647000
53.814400
37.236700
56.881200
14.648100
48.877500
27.090700
6.688740
2.256930
1.126230
0.915112
0.386837
20.518000
0.209272
2.431520
10.008500
30.561700
1.834440
1.402860
1.415550
0.714621
0.362005
30.366300
17.395700
26.957400
8.621190
11.993100
14.097100
21.530500
24.781900
19.500400
13.183900
21.295800
14.222500
22.403100
26.333000
29.857800
32.939100
15.291200
22.050500
1.506110
1.956020
1.342220
1.432060
0.707004
26.320800
30.488200
25.807100
20.197200
16.155300
27.385800
32.309500
27.738800
29.407000
29.427700
26.659600
28.347500
9.112130
25.806900
29.268400
9.190650
23.173200
18.995800
1.065900
1.830570
1.984880
1.853000
1.512630
26.376500
18.636900
31.484500
61.923700
20.119700
19.584800
67.347400
64.375200
20.729700
29.041600
72.581200
22.414200
18.652900
67.535500
68.945000
34.492400
68.533300
66.578100
1.847360
2.446380
1.862710
2.230180
2.043510
14.064600
16.545300
25.294700
22.070300
32.861400
38.404600
17.521100
16.360000
26.155600
15.074400
2.473860
2.836920
2.275510
2.376690
15.607100
12.310000
11.390500
5.014310
6.485290
21.708700
13.523000
18.255700
2.143960
23.026400
20.337200
26.659500
17.303400
24.559800
14.748900
10.839000
3.226900
2.553650
2.518660
2.973210
3.323050
11.897800
15.181100
17.570500
16.127200
10.456600
15.984900
14.091900
13.882400
11.843800
13.923600
3.182620
3.930860
3.503300
3.011730
3.009970
12.524700
13.397400
9.750830
14.652400
13.085300
7.442980
10.649900
14.188600
18.703900
12.160700
3.447780
4.849560
3.098500
3.805260
4.166300
7.374960
11.367300
12.012500
13.274800
9.474460
3.460350
4.335650
4.998400
5.065470
3.824640
4.835560
12.930100
14.347700
12.497500
4.997400
9.123360
10.228000
9.037840
14.010100
6.822010
5.167020
4.754470
4.598890
6.697960
3.712130
9.878170
12.989800
14.584500
12.273400
8.661100
9.524030
7.580370
8.559120
6.355230
10.134900
5.162740
5.763400
6.172330
4.027770
12.941400
6.394040
11.184500
13.883300
12.862400
15.134900
7.669800
6.976350
9.781160
5.793820
7.330350
4.251800
6.120080
6.504820
7.160400
14.436900
8.860970
17.509400
15.702100
20.415300
13.346300
6.175260
6.937750
7.121940
5.437430
6.063510
7.099090
8.695830
7.704600
7.383070
7.143020
18.505900
18.810800
14.754800
16.865900
6.187450
5.047390
23.084500
5.649180
4.753740
5.686100
15.250600
9.509630
6.987920
13.417900
10.242100
29.663900
17.168500
16.580500
27.898400
24.051000
4.612960
4.405900
4.154360
4.259860
5.076110
23.407100
10.537500
10.514600
11.015900
18.430100
30.134500
12.147500
20.096300
36.715700
21.196800
3.412550
4.156770
3.682910
3.407130
3.981610
25.601300
49.916000
14.897000
44.847100
50.803900
12.321800
14.513300
45.089700
45.834900
19.720700
17.360800
21.703000
53.302900
25.563400
50.782600
19.788800
28.714100
3.263210
2.783580
3.255980
3.333590
1.992300
14.445200
29.346900
25.769200
11.660300
16.111800
19.417800
24.682500
28.578500
28.038300
11.223300
22.076200
18.147600
18.905900
25.483900
26.463900
22.570800
24.694000
2.724110
1.453040
2.151700
2.556810
2.579720
14.175400
20.900500
13.655300
17.065700
11.998000
3.641830
20.521200
27.419300
5.639740
17.037800
16.427800
6.830150
28.119200
3.766750
11.980000
22.275900
6.917820
0.666262
1.567850
2.115860
2.035460
1.871030
17.716900
11.381100
15.698300
15.831500
18.606600
17.914500
21.153700
18.819600
18.572400
18.549500
8.471620
18.592100
21.320900
25.451600
24.116200
19.059700
23.458100
0.482202
1.875670
1.000520
1.317540
1.444600
6.321680
39.215500
11.873900
38.222800
29.517500
24.630400
16.756400
33.920500
41.387300
37.547800
41.747200
8.364100
32.291900
15.932300
26.118100
2.937540
37.593600
1.464740
1.042500
0.653436
1.565380
0.461002
0.039622
6.840810
11.513800
3.449680
4.167660
9.663590
6.838190
6.009480
3.359020
5.575130
3.291940
4.001900
2.552800
2.468340
4.825350
3.961950
2.370170
3.443300
2.365370
2.725800
2.644070
9.638540
10.388300
7.413990
9.244810
7.735760
7.939610
6.765070
8.061550
9.853480
5.455480
2.719680
6.631760
9.823210
3.669030
2.019590
2.645630
7.564830
5.177110
9.107790
8.739000
9.452780
4.356600
4.510960
2.709450
4.377470
2.620870
4.143920
3.113670
4.139650
3.816010
5.107960
5.511820
4.822740
1.303570
3.282450
2.207450
2.034080
3.329320
2.781480
2.653220
3.025300
1.990560
2.672140
4.779370
2.713820
3.119480
3.220390
3.542030
3.213080
5.469840
4.010520
3.791940
4.939620
3.944780
4.781030
4.618030
3.038210
1.506080
7.430090
5.769120
6.316110
6.390500
4.981260
6.587340
6.591180
7.163590
3.145800
8.073270
5.585300
6.840040
7.515680
3.774330
7.154700
5.516240
7.133920
5.585540
6.848640
6.082620
6.418320
4.730090
7.578680
6.404840
7.110260
5.802160
6.906510
5.624010
5.028250
2.058960
4.063220
5.483470
13.654300
13.871300
6.153590
8.296250
6.577450
10.249100
8.594660
11.698700
16.802600
15.777200
16.197300
12.158600
14.035300
11.815200
9.706750
10.369800
11.233700
15.834900
5.225420
6.038420
5.345450
7.172030
3.377340
3.289280
6.969530
9.018060
10.329300
11.775400
13.265900
3.821100
4.291530
0.002210
0.001199
9.760970
8.187490
7.035480
7.914680
7.592280
10.540900
3.027690
0.003983
0.007592
3.325910
9.940860
4.690700
0.002111
10.850000
0.003865
1.424920
1.719590
5.678080
3.591270
2.679290
0.006772
1.703530
5.777580
10.837000
4.561600
0.013711
5.535590
10.899500
2.391680
0.002198
3.967740
0.003302
1.631800
3.762050
1.108340
0.576709
10.571200
0.005912
5.204530
6.321860
0.012309
11.565400
5.199010
0.002236
1.518810
3.651620
3.884500
0.002963
1.349700
1.975960
0.005877
0.546149
6.268170
10.783000
0.011975
4.961350
0.002165
0.003031
11.304200
5.520300
4.514010
5.855370
2.462020
7.081600
7.856640
0.002180
0.011757
10.324200
0.005727
5.045200
1.658010
5.665980
5.238710
11.191100
4.186100
0.003692
0.002228
0.001456
10.189700
14.426000
13.554900
0.011607
9.470920
0.005689
5.141340
5.423900
1.837480
5.423850
10.453600
0.005737
0.001181
0.003535
0.005424
11.591600
14.913400
10.082100
0.011550
10.796200
17.737900
3.091860
4.831130
0.005661
3.946250
8.778600
9.593050
5.150080
7.140880
0.005557
0.003984
0.001623
6.473520
0.006991
0.011513
6.746610
12.927600
16.719900
0.001796
0.005657
6.919510
5.205740
3.374300
3.639220
8.373770
5.259810
16.252500
0.003058
0.006886
1.647360
6.848270
25.878000
17.700600
23.771900
0.011350
12.524400
6.252110
6.972990
0.005550
4.507540
2.258500
4.681290
4.815900
4.787810
7.021810
0.003267
16.283100
11.680900
11.649700
6.318940
11.004200
3.442980
5.885640
1.100720
0.011371
0.002170
5.744540
0.005376
2.166660
5.248350
8.820030
11.980900
8.451190
5.649890
8.512520
11.856900
11.917100
9.293050
4.271640
5.097810
1.998680
4.223210
1.094110
3.749950
2.433060
0.964793
4.832950
4.683380
0.002731
0.005799
5.973230
7.725800
11.771300
4.013540
8.061410
6.694320
11.678300
8.393170
8.512250
12.568700
9.424680
12.644900
13.794300
7.041770
1.576990
13.743000
12.877600
8.425740
12.767700
4.131690
13.145700
16.302000
7.067450
4.724440
14.512000
6.682760
12.692200
12.879800
15.044600
20.128300
4.859410
21.146900
9.159360
6.724630
6.430730
8.113020
5.139980
5.788760
1.336280
7.168070
6.097420
7.131660
6.024700
4.236010
4.629380
4.522120
6.613860
7.305930
9.182960
7.857130
6.359530
5.972630
6.344840
3.140360
3.839830
0.008485
1.868050
6.470930
5.382650
3.860480
14.776600
17.167900
18.689600
11.350800
16.592300
10.150000
11.882600
1.941800
7.256680
3.474320
7.844010
9.127850
4.533660
3.506160
5.639070
6.116320
5.651020
2.420870
3.096400
6.286220
2.573440
7.187370
2.024690
4.393330
7.565080
4.138870
4.503390
8.995820
12.923400
3.718260
8.214320
6.593580
5.980100
5.220960
9.233510
12.885700
12.462900
5.283790
4.578210
6.787860
6.407600
8.094310
6.277820
9.784170
7.134840
6.680040
4.853070
7.490210
5.947730
3.064220
6.957130
3.838000
7.451800
6.692380
8.045520
3.603880
4.131060
2.080870
3.801470
5.714320
3.242710
9.113360
3.266800
7.402110
7.374110
1.803930
6.237780
4.283530
2.846900
5.612950
3.945700
2.401840
3.328020
5.584490
4.865270
2.703350
3.185570
7.222360
4.132650
2.239390
3.777830
2.465370
4.436640
2.597300
3.962890
4.771050
2.952970
3.289130
1.707810
5.334520
2.504140
3.659230
5.151330
5.475010
3.565640
2.077020
2.685120
2.058350
3.409200
4.126350
2.281000
2.274010
2.866160
3.693580
3.356050
2.888280
3.816710
2.522070
2.835060
1.490370
2.205860
2.937010
1.367790
0.928893
3.053730
1.266580
1.408630
1.440170
1.381850
0.558119
1.778130
3.058980
1.970420
1.976270
1.684290
1.247490
1.009740
2.153050
3.715070
1.320570
3.201530
3.497910
3.183550
2.170490
0.778163
0.679595
1.603630
2.255320
0.949738
4.028010
5.564140
12.544400
1.419350
1.867520
1.441380
2.940650
3.846390
6.139260
3.380130
7.502500
6.409800
0.005545
4.350400
0.004677
0.006242
11.067700
13.424100
6.604150
7.432540
8.632090
0.005449
0.006420
3.609420
0.005578
5.766440
6.262060
5.275280
11.482300
7.911150
4.219860
0.006699
3.108920
0.006471
0.005676
6.627910
5.453370
5.172830
9.533070
1.212300
1.508340
0.007630
3.635510
2.492400
0.005818
0.007072
7.961660
4.420510
4.442810
5.725280
0.005983
0.007528
2.473770
0.009007
2.178340
6.211310
3.905760
4.893470
3.880370
1.684520
2.089500
0.006140
0.010503
0.008036
5.274060
3.033880
3.447670
3.805720
0.012226
0.006206
0.008558
2.725390
3.509160
3.325720
2.697920
0.014029
0.008970
0.869927
1.359890
0.006128
2.028980
2.334590
2.277900
3.531180
1.394690
2.354720
1.653580
1.650460
0.839413
1.624880
1.817940
3.678570
18.839500
12.360100
10.338500
23.699200
15.356000
6.618980
0.006405
0.003729
11.769600
6.545460
22.100600
10.876100
12.923100
19.359000
0.003798
8.926280
5.929760
0.005727
15.061800
9.872500
10.981600
17.984000
8.083930
4.936330
8.531650
0.004084
0.006168
0.005584
14.331500
10.433400
15.997800
8.341160
6.003030
8.900320
17.049500
17.445300
18.101800
11.638100
17.994000
18.544400
14.677800
15.571700
19.024100
20.016200
22.761600
20.052300
22.926200
21.760300
20.914900
24.072000
21.701000
22.360000
19.246000
20.889100
3.475730
21.268200
22.453300
13.234300
8.444790
5.190150
23.465400
24.570300
17.618500
10.813700
11.304400
8.723990
9.437500
9.967430
10.196100
10.235500
9.820310
9.596350
9.415820
8.853970
10.252000
12.099500
11.283800
13.038300
12.023500
12.224100
10.702900
10.790300
11.709400
11.174500
11.656200
12.140800
13.854200
16.158100
5.610350
14.079000
14.823400
11.039500
15.245000
11.909700
25.024500
9.284500
24.146300
22.385900
24.899600
12.660000
11.434500
1.624400
1.975580
2.174850
1.778680
4.639120
2.386940
3.296660
1.352620
1.102840
7.611160
1.884320
1.445070
1.609050
2.150070
2.001520
1.235710
1.782250
1.094130
2.289450
3.738700
2.280560
4.856620
15.495700
9.581170
12.443200
16.329500
17.583200
18.305900
8.727690
13.178400
6.167670
3.508390
8.529370
9.161940
8.123170
7.628110
8.301650
9.000250
8.546840
8.902280
8.762860
8.899100
9.117690
9.352890
10.071700
8.956160
6.716900
9.628860
9.736820
10.038500
10.252800
3.578720
9.326820
20.697800
18.812300
18.626500
11.371600
17.306600
15.481900
16.433100
12.565000
15.750800
8.637210
6.212910
16.619100
18.109500
17.618400
18.061800
18.648600
17.179700
19.209800
17.380600
18.649900
19.135700
19.996200
20.456900
19.799800
19.517100
19.798900
21.869000
11.647900
21.429600
9.446710
21.177200
17.990700
18.312800
24.104300
18.949600
28.746800
25.842000
27.063300
24.316900
27.827000
28.100000
28.988300
29.676600
26.902800
25.925100
29.521500
30.606300
30.208400
34.380700
34.724400
31.450300
32.148700
30.231500
17.265500
12.916400
29.716900
18.846700
26.658000
12.858000
18.989700
0.002980
9.464230
0.004967
13.484500
29.812800
9.190450
17.731800
27.921400
0.004533
15.989600
0.007904
11.510000
15.116200
11.179500
25.761000
27.726700
17.885600
7.593050
11.386400
0.003848
0.006787
0.004873
0.007423
0.006502
0.005992
0.007527
0.009097
0.005916
0.017872
0.009667
0.240597
0.793932
0.471282
0.016051
0.487352
7.465880
9.910030
6.385440
4.488860
3.743710
2.240010
1.663190
0.776490
0.420520
0.474429
0.304999
0.134931
0.078348
0.029225
0.018906
0.086814
0.041229
0.037500
0.045253
0.017485
0.013163
0.060152
0.054845
0.030962
0.021984
0.016519
0.013211
0.049230
0.065786
0.048858
0.031245
0.023252
0.019700
0.062650
0.073174
0.059484
0.042182
0.031741
0.026551
0.057692
0.072907
0.064993
0.049456
0.038466
0.032527
0.060433
0.072601
0.067167
0.053815
0.043129
0.037125
0.058781
0.070884
0.067708
0.056046
0.046005
0.040198
0.059348
0.069335
0.067065
0.056777
0.047312
0.041763
0.058210
0.067197
0.065592
0.056226
0.047223
0.041856
0.057302
0.064712
0.063217
0.054515
0.045786
0.040510
0.054962
0.061335
0.059870
0.051591
0.043010
0.037713
0.051750
0.056910
0.055298
0.047392
0.038857
0.033452
0.046615
0.050956
0.049356
0.041849
0.033366
0.027756
0.039893
0.043438
0.041975
0.035137
0.026753
0.020827
0.031641
0.034791
0.033835
0.027980
0.019922
0.013496
0.025312
0.027864
0.027284
0.022707
0.015727
0.009630
0.027990
0.028959
0.027352
0.023490
0.018499
0.014894
0.039111
0.038971
0.035459
0.030568
0.026410
0.023930
0.052982
0.052025
0.046498
0.039825
0.035363
0.032944
0.064381
0.063268
0.056345
0.048310
0.043216
0.040674
0.070813
0.070537
0.063441
0.054437
0.049133
0.046501
0.073664
0.073795
0.066857
0.057988
0.052749
0.050250
0.072119
0.073158
0.067167
0.058981
0.054241
0.052000
0.067663
0.069651
0.065048
0.057958
0.053933
0.052061
0.061903
0.064511
0.061254
0.055551
0.052291
0.050838
0.055445
0.058642
0.056714
0.052279
0.049824
0.048754
0.049326
0.052834
0.051968
0.048717
0.046931
0.046217
0.043844
0.047560
0.047542
0.045208
0.043988
0.043546
0.039395
0.043155
0.043696
0.042057
0.041233
0.040997
0.035987
0.039729
0.040619
0.039407
0.038838
0.038728
0.033636
0.037296
0.038336
0.037333
0.036881
0.036834
0.032193
0.035750
0.036791
0.035823
0.035379
0.035345
0.031405
0.034891
0.035873
0.034810
0.034307
0.034250
0.031135
0.034569
0.035430
0.034219
0.033615
0.033520
0.031143
0.034607
0.035373
0.033968
0.033258
0.033116
0.031442
0.034967
0.035622
0.034018
0.033193
0.033006
0.031984
0.035627
0.036169
0.034338
0.033396
0.033161
0.032845
0.036626
0.037020
0.034921
0.033846
0.033554
0.034100
0.038018
0.038191
0.035762
0.034521
0.034156
0.035799
0.039843
0.039699
0.036839
0.035387
0.034925
0.038019
0.042126
0.041521
0.038118
0.036389
0.035797
0.040737
0.044842
0.043611
0.039516
0.037441
0.036676
0.043938
0.047894
0.045830
0.040918
0.038406
0.037432
0.047381
0.051065
0.047988
0.042107
0.039114
0.037881
0.050819
0.053978
0.049696
0.042856
0.039313
0.037806
0.053463
0.056039
0.050590
0.042779
0.038752
0.036948
0.054814
0.056568
0.049985
0.041571
0.037137
0.035058
0.053825
0.054733
0.047469
0.038920
0.034252
0.031928
0.049311
0.049864
0.042744
0.034704
0.030079
0.027463
0.042377
0.042341
0.035900
0.029491
0.024900
0.021794
0.032825
0.032955
0.028599
0.024548
0.019813
0.015373
0.024021
0.025001
0.024020
0.022699
0.016891
0.009514
0.022977
0.024163
0.025697
0.025501
0.018151
0.007748
0.028107
0.029280
0.031526
0.030987
0.022224
0.011205
0.034750
0.035638
0.037784
0.036455
0.026394
0.015207
0.037440
0.038339
0.040774
0.040087
0.029117
0.017613
0.037665
0.038093
0.041335
0.041253
0.029287
0.017902
0.029532
0.029730
0.034812
0.039023
0.026653
0.015978
0.028650
0.024855
0.028364
0.034573
0.020452
0.013000
0.068256
0.069101
0.063099
0.043135
0.022347
0.010097
0.189051
0.186748
0.194137
0.133027
0.037272
0.015123
0.554586
0.374683
0.141402
0.072723
0.034539
0.018313
0.283525
0.183146
0.085635
0.051190
0.026853
0.015321
0.102726
0.090229
0.059811
0.037467
0.025952
0.020309
0.039622
0.069867
0.054174
0.036528
0.027917
0.024008
0.031500
0.064569
0.055897
0.039533
0.029866
0.025045
0.034578
0.062247
0.057354
0.042314
0.031256
0.025012
0.035884
0.060221
0.057752
0.043976
0.032216
0.024931
0.039011
0.058573
0.057234
0.044684
0.032751
0.024965
0.056695
0.056144
0.044588
0.032804
0.024854
0.040955
0.054951
0.054563
0.043834
0.032284
0.024321
0.040906
0.052933
0.052583
0.042470
0.031173
0.023213
0.041303
0.050880
0.050173
0.040576
0.029526
0.021573
0.041106
0.048631
0.047452
0.038281
0.027568
0.019696
0.042189
0.046816
0.044632
0.035921
0.025759
0.018260
0.044443
0.045972
0.042390
0.034081
0.024840
0.018261
0.049782
0.047587
0.041694
0.033577
0.025608
0.020358
0.057678
0.052179
0.043467
0.035098
0.028160
0.024153
0.066001
0.058735
0.047670
0.038107
0.031829
0.028495
0.073048
0.064966
0.052114
0.041689
0.035507
0.032470
0.073025
0.067447
0.055506
0.044561
0.038470
0.035616
0.070387
0.067604
0.057389
0.046373
0.040664
0.037899
0.067237
0.066748
0.057816
0.047645
0.042151
0.039593
0.062905
0.064932
0.057882
0.048217
0.043237
0.040842
0.059663
0.062782
0.057099
0.048341
0.043812
0.041694
0.057010
0.060144
0.055353
0.047820
0.043844
0.042039
0.053274
0.056546
0.052924
0.046552
0.043283
0.041808
0.049208
0.052370
0.049774
0.044750
0.042138
0.041028
0.044626
0.047871
0.046357
0.042527
0.040589
0.039799
0.040259
0.043560
0.042930
0.040187
0.038803
0.038298
0.036290
0.039724
0.039861
0.037928
0.036992
0.036696
0.033185
0.036694
0.037329
0.035956
0.035305
0.035153
0.031066
0.034579
0.035457
0.034364
0.033854
0.033776
0.029816
0.033292
0.034235
0.033177
0.032692
0.032630
0.029311
0.032694
0.033518
0.032370
0.031819
0.031740
0.029075
0.032462
0.033200
0.031859
0.031219
0.031102
0.029124
0.032527
0.033133
0.031608
0.030857
0.030702
0.029243
0.032775
0.033306
0.031569
0.030717
0.030521
0.029598
0.033269
0.033703
0.031742
0.030777
0.030539
0.030217
0.034060
0.034350
0.032116
0.031021
0.030732
0.031181
0.035194
0.035271
0.032681
0.031424
0.031068
0.032556
0.036720
0.036461
0.033418
0.031949
0.031504
0.034322
0.038631
0.037913
0.034281
0.032546
0.031981
0.036495
0.040906
0.039561
0.035212
0.033140
0.032424
0.038928
0.043444
0.041333
0.036108
0.033647
0.032744
0.041595
0.046117
0.043053
0.036876
0.033962
0.032852
0.044192
0.048700
0.044601
0.037363
0.034010
0.032660
0.046905
0.051028
0.045674
0.037533
0.033709
0.032126
0.049329
0.052831
0.046335
0.037283
0.033060
0.031234
0.052275
0.054317
0.046363
0.036678
0.032109
0.029992
0.056264
0.055535
0.045743
0.035928
0.030850
0.028406
0.058730
0.055634
0.044923
0.034870
0.029384
0.026353
0.059747
0.054446
0.043085
0.033855
0.027550
0.023681
0.058419
0.051369
0.040566
0.032745
0.025542
0.020150
0.050833
0.045105
0.037810
0.032025
0.023604
0.015797
0.041893
0.038561
0.035767
0.032440
0.022463
0.011059
0.030941
0.032082
0.034962
0.033982
0.022820
0.007768
0.021041
0.027581
0.035506
0.036540
0.024774
0.009641
0.015210
0.025942
0.037003
0.040011
0.028028
0.015344
0.031351
0.035371
0.042394
0.045099
0.032307
0.021363
0.073880
0.073497
0.067826
0.058120
0.037168
0.024295
0.153436
0.149804
0.137611
0.092566
0.041671
0.020882
0.210067
0.204899
0.208578
0.153202
0.042004
0.017440
0.473724
0.363669
0.150613
0.074206
0.036580
0.021712
0.323592
0.227468
0.118426
0.064557
0.038862
0.022947
0.201762
0.153599
0.093268
0.059074
0.040247
0.031094
0.098587
0.102443
0.077464
0.054045
0.041141
0.034678
0.051974
0.079277
0.068188
0.050414
0.039410
0.033730
0.034378
0.066804
0.062397
0.047262
0.036185
0.029938
0.026928
0.059467
0.058295
0.044477
0.032526
0.024986
0.025081
0.054705
0.055052
0.042055
0.029129
0.019938
0.025955
0.051375
0.052349
0.039990
0.026323
0.015372
0.027181
0.048960
0.050085
0.038283
0.024255
0.011744
0.029784
0.047400
0.048241
0.036997
0.023059
0.009867
0.032731
0.046683
0.046941
0.036257
0.022952
0.010770
0.037965
0.047350
0.046403
0.036309
0.024170
0.014238
0.044748
0.049772
0.047074
0.037433
0.026815
0.019217
0.055025
0.054935
0.049359
0.039853
0.030693
0.024909
0.067628
0.062817
0.053590
0.043476
0.035232
0.030639
0.082018
0.073053
0.059452
0.047561
0.039716
0.035633
0.095283
0.083272
0.065283
0.051411
0.043089
0.039230
0.100029
0.088832
0.069573
0.053304
0.044753
0.040906
0.096801
0.087293
0.068633
0.052448
0.044410
0.040683
0.086430
0.080743
0.064451
0.049917
0.042544
0.039225
0.072008
0.072051
0.060288
0.046567
0.040415
0.037355
0.062815
0.065304
0.056032
0.044091
0.038556
0.035917
0.056839
0.060321
0.052640
0.042303
0.037450
0.035141
0.051857
0.055955
0.050054
0.040967
0.036846
0.034885
0.048387
0.052006
0.047302
0.039858
0.036339
0.034788
0.044470
0.047860
0.044454
0.038483
0.035715
0.034524
0.040486
0.043616
0.041332
0.036895