# vtk DataFile Version 2.0
test
ASCII
DATASET UNSTRUCTURED_GRID
POINTS 41454 float
0.750000 -0.500000 0.050000
0.750000 0.420000 0.050000
0.763655 -0.531106 0.050000
0.778533 -0.514140 0.050000
0.803092 -0.502072 0.050000
0.814025 -0.483841 0.050000
0.824714 -0.465046 0.050000
0.830945 -0.446369 0.050000
0.836365 -0.427157 0.050000
0.839825 -0.408238 0.050000
0.842337 -0.389041 0.050000
0.843571 -0.370037 0.050000
0.843824 -0.350948 0.050000
0.842986 -0.332079 0.050000
0.841146 -0.313320 0.050000
0.838285 -0.294948 0.050000
0.834465 -0.276959 0.050000
0.829806 -0.259668 0.050000
0.824493 -0.243086 0.050000
0.818891 -0.227511 0.050000
0.813446 -0.212729 0.050000
0.808425 -0.198578 0.050000
0.804294 -0.184932 0.050000
0.800865 -0.171102 0.050000
0.798250 -0.157467 0.050000
0.796303 -0.143408 0.050000
0.794798 -0.129155 0.050000
0.793602 -0.114582 0.050000
0.792563 -0.099781 0.050000
0.791595 -0.084786 0.050000
0.790638 -0.069656 0.050000
0.789667 -0.054441 0.050000
0.788667 -0.039168 0.050000
0.787635 -0.023868 0.050000
0.786570 -0.008555 0.050000
0.785471 0.006754 0.050000
0.784343 0.022047 0.050000
0.783187 0.037313 0.050000
0.782009 0.052537 0.050000
0.780811 0.067708 0.050000
0.779607 0.082802 0.050000
0.778406 0.097807 0.050000
0.777233 0.112685 0.050000
0.776117 0.127421 0.050000
0.775108 0.141961 0.050000
0.774277 0.156292 0.050000
0.773703 0.170376 0.050000
0.773533 0.184180 0.050000
0.773843 0.197808 0.050000
0.774823 0.211126 0.050000
0.776574 0.224473 0.050000
0.779088 0.237863 0.050000
0.782330 0.251505 0.050000
0.786205 0.265758 0.050000
0.790344 0.280891 0.050000
0.794077 0.297216 0.050000
0.796902 0.314552 0.050000
0.798029 0.332840 0.050000
0.797513 0.351299 0.050000
0.794212 0.370151 0.050000
0.789319 0.387852 0.050000
0.779035 0.404809 0.050000
0.771080 0.418442 0.050000
-0.750000 0.420000 0.050000
0.733871 0.420000 0.050000
0.717742 0.420000 0.050000
0.701613 0.420000 0.050000
0.685484 0.420000 0.050000
0.669355 0.420000 0.050000
0.653226 0.420000 0.050000
0.637097 0.420000 0.050000
0.620968 0.420000 0.050000
0.604839 0.420000 0.050000
0.588710 0.420000 0.050000
0.572581 0.420000 0.050000
0.556452 0.420000 0.050000
0.540323 0.420000 0.050000
0.524194 0.420000 0.050000
0.508065 0.420000 0.050000
0.491935 0.420000 0.050000
0.475807 0.420000 0.050000
0.459677 0.420000 0.050000
0.443548 0.420000 0.050000
0.427419 0.420000 0.050000
0.411290 0.420000 0.050000
0.395161 0.420000 0.050000
0.379032 0.420000 0.050000
0.362903 0.420000 0.050000
0.346774 0.420000 0.050000
0.330645 0.420000 0.050000
0.314516 0.420000 0.050000
0.298387 0.420000 0.050000
0.282258 0.420000 0.050000
0.266129 0.420000 0.050000
0.250000 0.420000 0.050000
0.233871 0.420000 0.050000
0.217742 0.420000 0.050000
0.201613 0.420000 0.050000
0.185484 0.420000 0.050000
0.169355 0.420000 0.050000
0.153226 0.420000 0.050000
0.137097 0.420000 0.050000
0.120968 0.420000 0.050000
0.104839 0.420000 0.050000
0.088710 0.420000 0.050000
0.072581 0.420000 0.050000
0.056452 0.420000 0.050000
0.040323 0.420000 0.050000
0.024194 0.420000 0.050000
0.008065 0.420000 0.050000
-0.008065 0.420000 0.050000
-0.024194 0.420000 0.050000
-0.040323 0.420000 0.050000
-0.056452 0.420000 0.050000
-0.072581 0.420000 0.050000
-0.088710 0.420000 0.050000
-0.104839 0.420000 0.050000
-0.120968 0.420000 0.050000
-0.137097 0.420000 0.050000
-0.153226 0.420000 0.050000
-0.169355 0.420000 0.050000
-0.185484 0.420000 0.050000
-0.201613 0.420000 0.050000
-0.217742 0.420000 0.050000
-0.233871 0.420000 0.050000
-0.250000 0.420000 0.050000
-0.266129 0.420000 0.050000
-0.282258 0.420000 0.050000
-0.298387 0.420000 0.050000
-0.314516 0.420000 0.050000
-0.330645 0.420000 0.050000
-0.346774 0.420000 0.050000
-0.362903 0.420000 0.050000
-0.379032 0.420000 0.050000
-0.395161 0.420000 0.050000
-0.411290 0.420000 0.050000
-0.427419 0.420000 0.050000
-0.443548 0.420000 0.050000
-0.459677 0.420000 0.050000
-0.475807 0.420000 0.050000
-0.491935 0.420000 0.050000
-0.508065 0.420000 0.050000
-0.524194 0.420000 0.050000
-0.540323 0.420000 0.050000
-0.556452 0.420000 0.050000
-0.572581 0.420000 0.050000
-0.588710 0.420000 0.050000
-0.604839 0.420000 0.050000
-0.620968 0.420000 0.050000
-0.637097 0.420000 0.050000
-0.653226 0.420000 0.050000
-0.669355 0.420000 0.050000
-0.685484 0.420000 0.050000
-0.701613 0.420000 0.050000
-0.717742 0.420000 0.050000
-0.733871 0.420000 0.050000
-0.750000 -0.500000 0.050000
-0.769495 0.415857 0.050000
-0.777177 0.402268 0.050000
-0.786698 0.385192 0.050000
-0.791546 0.367542 0.050000
-0.794924 0.348699 0.050000
-0.795794 0.330273 0.050000
-0.795185 0.311845 0.050000
-0.793078 0.294361 0.050000
-0.790117 0.277482 0.050000
-0.786630 0.261739 0.050000
-0.783192 0.246664 0.050000
-0.779942 0.232210 0.050000
-0.777214 0.218206 0.050000
-0.775005 0.204300 0.050000
-0.773344 0.190509 0.050000
-0.772205 0.176641 0.050000
-0.771501 0.162655 0.050000
-0.771138 0.148518 0.050000
-0.771042 0.134229 0.050000
-0.771140 0.119794 0.050000
-0.771382 0.105239 0.050000
-0.771725 0.090578 0.050000
-0.772146 0.075843 0.050000
-0.772624 0.061040 0.050000
-0.773150 0.046204 0.050000
-0.773715 0.031324 0.050000
-0.774311 0.016440 0.050000
-0.774932 0.001531 0.050000
-0.775565 -0.013360 0.050000
-0.776204 -0.028243 0.050000
-0.776837 -0.043070 0.050000
-0.777473 -0.057818 0.050000
-0.778128 -0.072439 0.050000
-0.778849 -0.086879 0.050000
-0.779703 -0.101098 0.050000
-0.780790 -0.115047 0.050000
-0.782237 -0.128699 0.050000
-0.784184 -0.142067 0.050000
-0.786820 -0.155117 0.050000
-0.790231 -0.168155 0.050000
-0.794460 -0.180897 0.050000
-0.799671 -0.194027 0.050000
-0.805524 -0.207435 0.050000
-0.812032 -0.221506 0.050000
-0.818764 -0.236537 0.050000
-0.825304 -0.252560 0.050000
-0.831348 -0.269569 0.050000
-0.836575 -0.287415 0.050000
-0.840860 -0.305939 0.050000
-0.844013 -0.325043 0.050000
-0.846040 -0.344491 0.050000
-0.846742 -0.364321 0.050000
-0.846273 -0.384189 0.050000
-0.844181 -0.404363 0.050000
-0.840969 -0.424253 0.050000
-0.835286 -0.444478 0.050000
-0.828768 -0.464029 0.050000
-0.817000 -0.483481 0.050000
-0.805371 -0.502312 0.050000
-0.779601 -0.513943 0.050000
-0.763586 -0.531794 0.050000
-0.733871 -0.500000 0.050000
-0.717742 -0.500000 0.050000
-0.701613 -0.500000 0.050000
-0.685484 -0.500000 0.050000
-0.669355 -0.500000 0.050000
-0.653226 -0.500000 0.050000
-0.637097 -0.500000 0.050000
-0.620968 -0.500000 0.050000
-0.604839 -0.500000 0.050000
-0.588710 -0.500000 0.050000
-0.572581 -0.500000 0.050000
-0.556452 -0.500000 0.050000
-0.540323 -0.500000 0.050000
-0.524194 -0.500000 0.050000
-0.508065 -0.500000 0.050000
-0.491935 -0.500000 0.050000
-0.475807 -0.500000 0.050000
-0.459677 -0.500000 0.050000
-0.443548 -0.500000 0.050000
-0.427419 -0.500000 0.050000
-0.411290 -0.500000 0.050000
-0.395161 -0.500000 0.050000
-0.379032 -0.500000 0.050000
-0.362903 -0.500000 0.050000
-0.346774 -0.500000 0.050000
-0.330645 -0.500000 0.050000
-0.314516 -0.500000 0.050000
-0.298387 -0.500000 0.050000
-0.282258 -0.500000 0.050000
-0.266129 -0.500000 0.050000
-0.250000 -0.500000 0.050000
-0.233871 -0.500000 0.050000
-0.217742 -0.500000 0.050000
-0.201613 -0.500000 0.050000
-0.185484 -0.500000 0.050000
-0.169355 -0.500000 0.050000
-0.153226 -0.500000 0.050000
-0.137097 -0.500000 0.050000
-0.120968 -0.500000 0.050000
-0.104839 -0.500000 0.050000
-0.088710 -0.500000 0.050000
-0.072581 -0.500000 0.050000
-0.056452 -0.500000 0.050000
-0.040323 -0.500000 0.050000
-0.024194 -0.500000 0.050000
-0.008065 -0.500000 0.050000
0.008065 -0.500000 0.050000
0.024194 -0.500000 0.050000
0.040323 -0.500000 0.050000
0.056452 -0.500000 0.050000
0.072581 -0.500000 0.050000
0.088710 -0.500000 0.050000
0.104839 -0.500000 0.050000
0.120968 -0.500000 0.050000
0.137097 -0.500000 0.050000
0.153226 -0.500000 0.050000
0.169355 -0.500000 0.050000
0.185484 -0.500000 0.050000
0.201613 -0.500000 0.050000
0.217742 -0.500000 0.050000
0.233871 -0.500000 0.050000
0.250000 -0.500000 0.050000
0.266129 -0.500000 0.050000
0.282258 -0.500000 0.050000
0.298387 -0.500000 0.050000
0.314516 -0.500000 0.050000
0.330645 -0.500000 0.050000
0.346774 -0.500000 0.050000
0.362903 -0.500000 0.050000
0.379032 -0.500000 0.050000
0.395161 -0.500000 0.050000
0.411290 -0.500000 0.050000
0.427419 -0.500000 0.050000
0.443548 -0.500000 0.050000
0.459677 -0.500000 0.050000
0.475807 -0.500000 0.050000
0.491935 -0.500000 0.050000
0.508065 -0.500000 0.050000
0.524194 -0.500000 0.050000
0.540323 -0.500000 0.050000
0.556452 -0.500000 0.050000
0.572581 -0.500000 0.050000
0.588710 -0.500000 0.050000
0.604839 -0.500000 0.050000
0.620968 -0.500000 0.050000
0.637097 -0.500000 0.050000
0.653226 -0.500000 0.050000
0.669355 -0.500000 0.050000
0.685484 -0.500000 0.050000
0.701613 -0.500000 0.050000
0.717742 -0.500000 0.050000
0.733871 -0.500000 0.050000
0.770136 -0.501038 0.050000
0.781278 -0.502340 0.050000
0.793314 -0.490345 0.050000
0.804639 -0.476271 0.050000
0.811940 -0.459116 0.050000
0.818507 -0.441736 0.050000
0.822820 -0.423835 0.050000
0.826340 -0.405685 0.050000
0.828456 -0.387491 0.050000
0.829688 -0.369156 0.050000
0.829793 -0.350914 0.050000
0.828943 -0.332681 0.050000
0.827026 -0.314692 0.050000
0.824101 -0.296918 0.050000
0.820132 -0.279637 0.050000
0.815211 -0.262851 0.050000
0.809466 -0.246888 0.050000
0.803225 -0.231599 0.050000
0.796970 -0.217110 0.050000
0.791409 -0.203020 0.050000
0.786671 -0.188814 0.050000
0.783036 -0.174880 0.050000
0.780381 -0.160422 0.050000
0.778518 -0.145938 0.050000
0.777205 -0.131192 0.050000
0.776202 -0.116308 0.050000
0.775336 -0.101272 0.050000
0.774495 -0.086135 0.050000
0.773630 -0.070924 0.050000
0.772717 -0.055659 0.050000
0.771754 -0.040367 0.050000
0.770740 -0.025056 0.050000
0.769678 -0.009742 0.050000
0.768572 0.005566 0.050000
0.767423 0.020859 0.050000
0.766235 0.036127 0.050000
0.765009 0.051361 0.050000
0.763750 0.066547 0.050000
0.762461 0.081680 0.050000
0.761153 0.096735 0.050000
0.759838 0.111711 0.050000
0.758547 0.126572 0.050000
0.757320 0.141325 0.050000
0.756231 0.155930 0.050000
[...]
CELL_DATA 34596
SCALARS Mises_Stress_Abs(MPa) float 1
LOOKUP_TABLE default
109.314000
114.378000
82.249900
98.908400
106.063000
99.554700
106.958000
104.505000
71.160000
109.146000
27.934900
93.402700
51.464200
12.770500
4.414410
2.336630
1.819920
0.748012
40.523000
0.406358
4.787420
19.758000
60.185600
3.660050
2.835230
2.756330
1.425640
0.697252
59.674400
34.325000
53.110400
17.034800
23.459500
26.983300
41.991700
48.485900
38.023700
25.587500
40.845800
27.002500
43.034700
50.651300
57.311000
63.159100
29.585000
42.316300
3.099890
3.820240
2.622680
2.920410
1.369920
51.811600
59.806400
50.274700
39.876900
31.896800
53.200400
62.244100
53.804800
56.544900
56.553400
52.267400
55.243700
17.551900
49.975200
56.603300
17.673200
44.533700
36.145500
2.099550
3.469690
3.891420
3.769970
3.049320
51.572600
36.600200
61.558000
121.396000
39.791800
38.633400
131.753000
125.341000
39.873800
55.997800
139.872000
42.847700
35.717800
131.431000
133.537000
66.400200
131.805000
128.898000
3.622530
4.773420
3.687720
4.337150
4.127510
27.477400
32.588200
49.534300
43.686800
65.168400
73.152400
33.414300
31.375800
50.148400
28.984700
4.901420
5.469650
4.538840
4.688870
30.673900
24.187700
22.486800
10.089800
12.969500
43.037000
26.598800
35.730100
4.272750
45.524000
40.852900
50.525900
33.096100
46.818300
28.263800
20.753900
6.348420
5.091000
5.018330
5.813070
6.452360
23.722500
30.224500
34.544200
31.702100
21.307400
30.127800
26.637900
26.504500
22.676400
26.559100
6.311010
7.633200
6.975980
5.922020
5.956980
24.999000
26.295400
19.975900
28.815300
25.849100
14.049800
20.343500
27.097600
35.345300
23.025500
6.868010
9.554460
6.148700
7.462420
8.089200
14.046800
21.441600
22.885100
25.011000
18.018600
6.791470
8.581610
9.927340
9.867220
7.576680
9.485680
25.417800
28.184400
24.481100
9.622310
17.224800
19.500900
17.215200
26.412100
12.862100
10.038700
9.339830
9.142460
13.204600
7.361620
18.628000
25.392300
28.685800
24.107500
16.646500
18.115200
14.371700
16.104500
12.071800
19.068500
10.212700
11.398200
12.036500
7.890650
25.409800
12.677800
21.611200
27.039600
24.483900
29.759200
14.610100
13.141500
18.386000
10.913400
13.918500
8.426820
12.017200
12.878500
13.914300
28.352300
17.470500
33.983100
30.615300
39.244300
26.293100
11.589300
13.019900
13.518900
10.309400
11.454500
13.784400
17.105800
15.257100
14.591500
13.897200
35.978900
36.628600
28.961500
33.190900
11.589800
9.477490
44.528700
10.759100
8.945860
10.751600
29.921500
18.455100
13.545500
26.410900
19.943100
57.437900
33.630900
32.159900
54.422100
47.191100
8.672550
8.341140
7.761470
7.978890
9.606090
45.825700
20.407800
20.376100
21.360500
35.901900
58.432200
23.591900
38.976000
71.810400
41.536300
6.367750
7.813330
6.928580
6.366350
7.593670
49.814900
97.195200
28.902700
87.265400
98.900900
23.924100
28.162300
87.854900
89.218200
38.298800
33.652800
42.063900
103.858000
49.936300
99.078500
38.444000
55.730200
6.093720
5.214570
6.165620
6.270570
3.680420
28.054600
57.200700
50.205200
22.674200
31.329800
37.762100
48.123300
55.687300
54.737800
22.016600
42.899300
35.203700
36.665600
49.465000
51.401500
43.802100
47.964300
5.072720
2.703550
3.991870
4.817390
4.960810
27.635500
40.664300
26.478300
33.261900
23.263800
6.983640
39.950700
53.259300
11.026800
33.031700
31.896600
13.429300
54.670100
7.451690
23.173800
43.279800
13.535400
1.217870
2.923640
3.919870
3.895360
3.480740
34.442200
22.272700
30.599100
30.758400
36.194700
34.819200
41.172500
36.587700
36.194800
36.109100
16.433000
36.147600
41.495700
49.494200
46.898100
37.084400
45.596100
0.909845
3.544980
1.826970
2.441310
2.951740
12.280600
76.259500
23.166900
74.343300
57.445100
48.000900
32.608100
66.019300
80.557500
73.000900
81.189900
16.262800
62.930400
31.088000
50.909800
5.695740
73.194800
2.850550
2.036960
1.331660
3.141310
0.898504
0.107016
12.615900
21.193900
6.973950
7.286850
17.994200
13.023800
11.519400
6.495700
10.464500
6.256220
7.791180
5.218010
4.713360
9.103670
8.027480
4.408050
6.497200
4.166060
4.917970
4.712740
17.826400
19.218200
14.168600
17.132200
14.425200
15.024300
12.617400
14.955500
18.255700
10.180200
4.998690
12.428900
18.873600
6.715900
3.989750
5.299740
14.258200
9.647590
17.415000
16.806900
17.985400
8.671520
8.820220
5.358750
8.728180
5.608760
7.656350
5.803830
7.488650
6.907720
9.255330
10.022000
8.886050
2.223130
5.947280
4.405990
3.925630
5.946660
5.029220
4.778930
5.521350
3.927750
4.896710
9.242960
5.226070
6.010190
6.246830
6.903370
6.331060
10.556200
7.779170
7.318720
9.502190
7.591230
9.254300
8.964520
5.566980
3.038410
13.669400
10.755200
11.629200
11.911300
9.313560
12.276500
12.234300
13.290200
5.937580
15.174300
10.454600
12.711700
14.040000
7.317070
13.474900
10.303300
13.288300
10.743200
13.090700
11.609200
12.355000
9.057770
14.733400
12.340900
13.747300
11.166400
13.334600
10.793500
9.397180
3.934070
7.858900
10.320300
25.506800
25.855100
11.886300
15.551600
12.433200
19.329800
16.297100
21.931400
32.305800
30.338700
30.127400
23.090000
26.839900
22.307500
18.273100
19.445300
21.060700
29.425900
9.861810
11.449200
10.180500
13.477000
6.279560
6.182230
13.179600
17.155600
19.668700
22.462800
25.388900
7.595670
8.246670
0.004066
0.002198
17.865800
15.259200
12.979500
15.217400
14.254000
20.134200
5.819780
0.007693
0.014603
6.133860
18.808800
8.638240
0.003934
19.993100
0.007093
2.256080
3.310210
10.890400
7.162440
4.648790
0.013058
3.202190
11.280000
20.565700
8.470880
0.026386
10.264300
20.120600
4.611780
0.004258
7.892150
0.006134
3.234170
6.817140
2.478190
1.326470
19.892100
0.011335
9.812210
12.140900
0.023645
21.506700
9.580160
0.004390
3.063430
7.184820
7.852780
0.005558
2.360240
3.699210
0.011236
1.180450
12.139800
20.405100
0.022934
9.207100
0.004266
0.005770
20.995200
10.255400
8.828980
11.157800
4.750440
13.701100
15.360200
0.004200
0.022488
19.329100
0.010931
9.503680
3.311790
10.851400
9.661190
20.940500
7.646970
0.007139
0.004360
0.002795
19.280800
27.709700
26.066600
0.022184
17.831800
0.010852
9.574030
10.479800
3.584320
10.073600
19.520700
0.011029
0.002293
0.006831
0.010466
21.235900
28.347200
19.202700
0.022058
20.681000
34.002100
6.000290
9.085010
0.010789
7.530640
16.318500
18.030200
9.545390
13.702000
0.010837
0.007762
0.003127
12.437300
0.013509
0.021980
12.876200
24.816000
32.009100
0.003410
0.010771
12.895200
9.761840
6.440110
7.073000
15.743400
9.742280
30.976400
0.005983
0.013453
3.353460
12.590800
49.371500
33.764300
45.358800
0.021648
23.983400
11.499100
13.439500
0.010562
8.438680
4.340690
9.017850
9.507120
8.970360
13.216000
0.006384
31.062300
22.080600
22.185600
12.275400
21.040100
6.207620
11.172400
2.209440
0.021587
0.004138
10.962500
0.010169
4.114450
10.040900
16.852600
22.802100
16.492300
10.335500
16.577300
22.649500
22.865800
17.672300
8.612810
10.004200
3.618890
8.077910
2.089590
7.208200
4.038720
1.919700
9.027280
8.872830
0.005147
0.010959
11.296900
14.585400
22.463900
7.734870
15.453100
12.272600
22.607000
15.524800
16.295000
24.375300
18.061700
24.101500
26.372500
13.541800
3.028200
26.307700
24.620200
15.877800
24.518500
7.598790
25.085300
31.181300
13.268900
8.887570
27.599300
11.932500
24.139700
24.788100
28.153300
38.488900
9.264140
40.245700
17.433300
12.880300
12.286600
15.542400
9.851000
11.084400
2.633730
13.700900
11.670400
13.751700
11.531900
7.790280
8.714260
8.645310
12.717600
14.179200
17.661200
15.652700
12.814900
10.995400
11.965700
5.795170
7.820260
0.019921
3.526610
12.317500
10.250400
7.390080
27.192700
32.200300
35.384300
21.737800
31.118300
19.086900
21.958500
3.688530
13.942000
6.615300
14.842600
17.147300
9.301910
7.549190
10.860700
12.252500
11.171400
4.246190
5.427620
13.134400
5.368130
13.996700
3.556040
8.708260
14.394200
7.278840
9.686130
18.975500
25.207000
6.527070
15.733600
11.517100
12.342300
10.820200
19.360900
24.818600
24.361300
10.412200
8.030840
11.826300
13.179500
17.230600
11.709200
20.575500
15.437700
13.207400
10.143400
15.463500
10.223800
5.322360
12.055600
6.661230
13.072700
12.045200
16.778900
6.307040
8.773210
4.487860
8.168290
12.085300
6.007010
17.772800
6.746380
14.238600
14.766000
3.218400
10.850900
7.441170
4.880580
10.950200
7.786510
4.507090
7.339110
10.814700
10.337000
5.506790
6.643200
14.183700
8.201000
3.771260
6.540230
4.285240
7.847920
5.108150
8.639120
10.099300
6.420180
6.146940
3.186900
10.375000
4.360980
7.439640
10.052700
10.936300
6.238400
4.183980
4.571950
3.621300
7.239960
8.870600
5.048950
4.773610
5.678910
6.391530
7.192580
6.001150
7.856760
4.426340
5.045900
2.640930
3.808370
5.183790
2.559140
1.715590
6.175910
2.560860
2.902190
3.086830
2.625320
0.987376
3.337750
6.122700
4.464500
4.289430
3.234580
2.270440
1.675000
4.450310
7.604280
2.380450
6.175100
6.445270
6.339820
3.867460
1.512910
1.274740
2.653260
3.826620
1.577810
6.848990
9.613370
24.544600
2.843490
4.328940
3.172890
6.844410
8.630660
13.852600
7.238280
16.462700
11.509200
0.010229
7.885220
0.007719
0.011410
22.489000
26.575700
13.024500
15.027000
16.943300
0.008842
0.011689
6.513920
0.010320
10.361400
12.696600
10.481300
22.681700
15.576600
7.545450
0.012208
5.604190
0.010575
0.010561
13.064100
11.108700
10.270500
18.892200
2.128050
2.735520
0.012475
6.489780
4.470100
0.010998
0.012928
15.718400
8.885490
9.077850
11.290700
0.011497
0.013939
4.399790
0.015076
3.916600
12.279200
8.052330
9.705940
7.748740
2.992010
3.705170
0.012229
0.017667
0.015052
10.375600
6.222860
7.065890
7.480980
0.021353
0.012738
0.016580
5.758990
6.844450
6.679940
5.390330
0.024677
0.017664
1.515430
2.424590
0.013422
3.879330
5.015660
4.645590
6.935330
2.972820
4.852890
3.150860
3.598490
1.736540
3.264070
3.968250
7.340150
37.753500
24.734100
20.190100
46.647500
29.968100
12.020700
0.012004
0.006783
21.342200
12.826100
43.485400
21.740200
25.302900
38.770100
0.006669
16.093400
10.799000
0.010656
30.361900
19.845400
21.486500
35.517400
15.852800
8.941160
15.411600
0.006905
0.011350
0.010335
28.876000
20.487600
31.558200
16.788800
11.836300
15.962200
31.318400
31.804200
33.251800
21.160400
33.284600
34.338100
26.561400
28.437800
35.443500
37.556900
43.674500
37.700700
44.188200
41.490400
39.515500
46.447400
41.277000
42.810700
35.915100
39.557700
7.154970
41.475800
43.705800
25.855100
16.564300
10.094900
45.527300
47.894100
34.540600
19.719700
20.922200
16.015600
17.230300
18.099100
18.746400
19.169800
18.257200
17.832700
17.353100
16.325000
19.216000
23.508500
21.451000
25.324000
23.197800
23.814300
20.217200
20.361900
22.423400
21.260500
22.317100
23.368900
27.070600
31.594800
10.613700
27.417300
28.831400
21.960400
29.756700
21.853700
46.073200
17.032700
44.187100
41.264600
46.103000
23.272000
21.214700
3.431710
4.099880
4.443470
3.750060
8.795010
4.784930
6.164750
2.915980
2.453270
13.973200
3.985690
3.104510
3.432400
4.583750
4.250140
2.673670
3.755880
2.353450
4.904620
7.432780
4.875190
9.387120
30.189500
18.577800
24.273700
31.831300
34.259900
35.974800
16.074300
24.383100
11.652600
6.780930
16.093700
17.448400
15.186800
14.146700
15.597200
17.085000
16.077400
16.781400
16.600800
16.836200
17.405100
17.873400
19.391000
17.033000
12.838200
18.472300
18.746700
19.343900
19.942700
7.017650
17.869200
40.413100
36.849500
36.465000
22.037900
33.595200
28.409300
30.467300
22.909400
29.168700
16.020500
11.461900
30.935400
34.042900
32.958700
33.960400
35.230800
31.987400
36.474700
32.515500
35.240700
36.333600
38.517800
39.237400
37.787600
37.230300
37.941900
42.566800
22.741800
41.446600
18.704300
40.800400
35.059900
35.650400
47.156200
37.064800
54.376600
48.139000
50.690000
45.056600
52.346900
52.918600
54.881700
56.447500
50.334200
48.249500
56.958100
58.532400
57.767200
66.700600
67.631800
60.448800
62.069100
58.078700
33.760800
25.011000
56.549700
36.835200
52.096700
24.853500
34.564700
0.005573
17.391400
0.009360
26.150100
59.018300
17.687000
34.520600
54.776000
0.008541
29.065200
0.014940
20.975400
29.507500
21.607100
51.295800
54.386500
35.312300
13.876700
20.609300
0.007144
0.012833
0.009287
0.013990
0.012242
0.011232
0.010820
0.019650
0.012882
0.034810
0.016550
0.495477
1.429440
0.841341
0.030371
0.874328
15.326000
20.110400
13.063200
9.325820
7.738160
4.679210
3.496500
1.575920
0.891757
0.778054
0.623097
0.324407
0.203925
0.083579
0.040279
0.250736
0.173868
0.102172
0.092086
0.048037
0.033073
0.264518
0.187896
0.099856
0.061698
0.051228
0.036864
0.172601
0.151845
0.113633
0.079855
0.059450
0.051477
0.189133
0.159645
0.122828
0.093169
0.074496
0.064907
0.154392
0.150536
0.129859
0.103914
0.085513
0.076376
0.157170
0.149907
0.132094
0.110350
0.093643
0.084711
0.143667
0.144642
0.132652
0.113629
0.098343
0.090068
0.141829
0.141267
0.130905
0.114322
0.100280
0.092505
0.134319
0.136090
0.127878
0.112772
0.099627
0.092265
0.130016
0.130720
0.123091
0.109151
0.096572
0.089437
0.122479
0.123572
0.116633
0.103370
0.091122
0.084074
0.114613
0.114820
0.108005
0.095332
0.083227
0.076157
0.103394
0.103453
0.096999
0.084852
0.072871
0.065701
0.089828
0.089365
0.083299
0.071990
0.060160
0.052860
0.072785
0.072496
0.067381
0.057236
0.045745
0.038208
0.055102
0.055167
0.051162
0.042639
0.031722
0.023712
0.044990
0.045681
0.042005
0.034717
0.025327
0.018165
0.053898
0.054684
0.049431
0.041102
0.033701
0.029077
0.074260
0.074506
0.066742
0.055993
0.048615
0.044534
0.093755
0.093986
0.084270
0.071291
0.062964
0.058801
0.106156
0.108062
0.098020
0.083158
0.074427
0.070112
0.113959
0.116254
0.105959
0.090894
0.082085
0.077954
0.114515
0.117925
0.108560
0.094255
0.086099
0.082337
0.109238
0.114214
0.106778
0.093980
0.086907
0.083711
0.101236
0.107112
0.101715
0.091110
0.085239
0.082725
0.091585
0.098309
0.094975
0.086517
0.081982
0.080098
0.082029
0.089257
0.087684
0.081237
0.077842
0.076554
0.073410
0.080951
0.080792
0.075943
0.073505
0.072678
0.066450
0.074058
0.074844
0.071185
0.069414
0.068930
0.061226
0.068791
0.070167
0.067236
0.065884
0.065608
0.057741
0.065170
0.066804
0.064225
0.063054
0.062877
0.055714
0.062989
0.064648
0.062126
0.060957
0.060794
0.054741
0.061926
0.063509
0.060826
0.059551
0.059347
0.054600
0.061735
0.063142
0.060205
0.058755
0.058485
0.054935
0.062158
0.063412
0.060133
0.058497
0.058147
0.055787
0.063148
0.064203
0.060554
0.058712
0.058282
0.057096
0.064687
0.065512
0.061422
0.059361
0.058840
0.058992
0.066838
0.067350
0.062724
0.060406
0.059774
0.061583
0.069685
0.069735
0.064439
0.061799
0.061028
0.064950
0.073270
0.072671
0.066518
0.063473
0.062514
0.069160
0.077599
0.076092
0.068873
0.065307
0.064109
0.074141
0.082559
0.079853
0.071325
0.067131
0.065625
0.079709
0.087886
0.083659
0.073626
0.068681
0.066814
0.085383
0.093077
0.087066
0.075370
0.069636
0.067343
0.090468
0.097349
0.089379
0.076122
0.069545
0.066832
0.093712
0.099664
0.089876
0.075203
0.067997
0.064842
0.094369
0.098872
0.087432
0.072191
0.064510
0.060977
0.090387
0.093710
0.081632
0.066610
0.058795
0.054927
0.080888
0.083627
0.072095
0.058434
0.050903
0.046582
0.068297
0.069799
0.059373
0.048839
0.041413
0.036214
0.052262
0.053713
0.046541
0.040194
0.032459
0.024740
0.040379
0.042094
0.039907
0.037941
0.028130
0.015171
0.044402
0.044915
0.045511
0.044462
0.031941
0.015213
0.056797
0.056403
0.057265
0.055182
0.040397
0.023313
0.071351
0.069990
0.070028
0.065663
0.048566
0.031298
0.077428
0.076061
0.076124
0.072580
0.054074
0.036242
0.083624
0.081128
0.081152
0.075812
0.054916
0.037223
0.069089
0.067007
0.069232
0.070779
0.050388
0.033786
0.072437
0.064297
0.066949
0.060955
0.038134
0.027584
0.074570
0.077937
0.073789
0.048760
0.036113
0.022582
0.380963
0.370640
0.368765
0.230818
0.082162
0.031050
1.080360
0.773490
0.349132
0.180137
0.081515
0.039646
0.334471
0.232539
0.108189
0.092807
0.051770
0.034856
0.041535
0.054629
0.064210
0.055206
0.044603
0.040388
0.090247
0.092261
0.073614
0.057479
0.050265
0.046315
0.097995
0.105527
0.091961
0.070149
0.057154
0.051439
0.111145
0.115362
0.101517
0.079775
0.064004
0.055848
0.107581
0.116564
0.106647
0.085761
0.068961
0.059755
0.110830
0.116888
0.108035
0.088895
0.072196
0.062571
0.114570
0.107570
0.089784
0.073545
0.063974
0.106603
0.111983
0.105375
0.088861
0.073134
0.063693
0.102738
0.108000
0.101970
0.086302
0.071002
0.061686
0.100204
0.103540
0.097265
0.082294
0.067297
0.058033
0.095798
0.098033
0.091506
0.077007
0.062284
0.053051
0.092566
0.092397
0.084904
0.070895
0.056524
0.047402
0.089981
0.087320
0.078498
0.064839
0.051096
0.042364
0.091710
0.085418
0.073966
0.060430
0.047699
0.039810
0.099241
0.089325
0.074173
0.059833
0.048061
0.041385
0.112087
0.099582
0.080216
0.063359
0.052104
0.046165
0.124444
0.110965
0.088314
0.069031
0.057340
0.051715
0.120911
0.112226
0.092226
0.072522
0.061346
0.056164
0.114043
0.110108
0.093319
0.074034
0.063918
0.059086
0.106946
0.106940
0.092533
0.074906
0.065411
0.061091
0.097838
0.102883
0.091934
0.075197
0.066721
0.062729
0.091633
0.099431
0.090995
0.075557
0.067800
0.064287
0.088620
0.096366
0.089078
0.075492
0.068535
0.065510
0.084624
0.092070
0.086189
0.074444
0.068597
0.066068
0.079389
0.086423
0.082066
0.072506
0.067727
0.065788
0.072879
0.079848
0.077212
0.069750
0.066095
0.064687
0.066329
0.073335
0.072202
0.066639
0.063934
0.063004
0.060360
0.067531
0.067694
0.063552
0.061604
0.061027
0.055824
0.063072
0.064048
0.060859
0.059383
0.059043
0.052872
0.060094
0.061469
0.058736
0.057483
0.057260
0.051308
0.058445
0.059916
0.057233
0.056003
0.055800
0.050841
0.057850
0.059148
0.056305
0.054953
0.054717
0.050778
0.057819
0.058994
0.055822
0.054314
0.054011
0.051161
0.058271
0.059234
0.055735
0.054033
0.053665
0.051699
0.059052
0.059873
0.055976
0.054091
0.053649
0.052664
0.060276
0.060889
0.056547
0.054448
0.053927
0.054097
0.062026
0.062325
0.057426
0.055073
0.054455
0.056125
0.064364
0.064205
0.058584
0.055915
0.055169
0.058797
0.067338
0.066505
0.059970
0.056897
0.055983
0.062070
0.070903
0.069168
0.061485
0.057916
0.056785
0.065837
0.074947
0.072058
0.063002
0.058835
0.057442
0.069859
0.079242
0.074980
0.064340
0.059511
0.057807
0.073913
0.083495
0.077649
0.065339
0.059789
0.057757
0.077721
0.087350
0.079814
0.065801
0.059598
0.057195
0.081518
0.090611
0.081173
0.065771
0.058858
0.056120
0.085477
0.093258
0.081931
0.065132
0.057677
0.054555
0.091409
0.095850
0.081716
0.064119
0.056137
0.052515
0.098537
0.097996
0.080721
0.063022
0.054134
0.049934
0.102693
0.098192
0.079441
0.061342
0.051718
0.046462
0.105315
0.096737
0.076485
0.059648
0.048440
0.041726
0.103898
0.091926
0.071913
0.057445
0.044644
0.035263
0.090444
0.079906
0.065880
0.055531
0.040851
0.027283
0.076120
0.068967
0.062280
0.056128
0.038739
0.018909
0.062074
0.059874
0.061220
0.058951
0.039492
0.013383
0.051338
0.054272
0.062636
0.063278
0.042687
0.016304
0.036826
0.045904
0.062055
0.068049
0.047613
0.025525
0.043436
0.049034
0.066312
0.074468
0.053905
0.036167
0.089915
0.094344
0.095987
0.091251
0.062655
0.043177
0.251860
0.248197
0.239619
0.158947
0.073777
0.040944
0.445705
0.429655
0.424039
0.284158
0.092218
0.035010
0.983594
0.747617
0.376795
0.176046
0.082907
0.046349
0.558688
0.386349
0.185025
0.115046
0.076214
0.046365
0.244922
0.182177
0.129471
0.093929
0.067342
0.055804
0.068973
0.108401
0.103394
0.077760
0.064274
0.057737
0.058608
0.100038
0.094672
0.073877
0.061071
0.054762
0.062949
0.097593
0.094452
0.073489
0.058042
0.049967
0.071763
0.097790
0.094327
0.073782
0.055936
0.045422
0.074996
0.096817
0.093783
0.073666
0.054394
0.042056
0.078694
0.095654
0.092359
0.073064
0.053195
0.039741
0.079710
0.093960
0.090517
0.071947
0.052041
0.038122
0.081912
0.092480
0.088351
0.070522
0.050913
0.036982
0.083486
0.091240
0.086269
0.069046
0.050052
0.036564
0.087545
0.091276
0.084678
0.068043
0.050022
0.037518
0.093788
0.093378
0.084497
0.068228
0.051594
0.040618
0.105103
0.099353
0.086714
0.070462
0.055372
0.046148
0.121789
0.110368
0.092698
0.075340
0.061357
0.053597
0.143537
0.126813
0.102448
0.082220
0.068505
0.061374
0.166525
0.146046
0.114582
0.089849
0.074693
0.067636
0.182095
0.162190
0.126422
0.095087
0.078092
0.070602
0.167585
0.152717
0.120707
0.091614
0.076551
0.069631
0.146186
0.137515
0.110342
0.084876
0.071716
0.065853
0.117952
0.119650
0.100682
0.076883
0.066226
0.061008