# vtk DataFile Version 2.0
test
ASCII
DATASET UNSTRUCTURED_GRID
POINTS 41454 float
0.750000 -0.500000 0.050000
0.750000 0.415000 0.050000
0.758797 -0.534714 0.050000
0.777136 -0.518353 0.050000
0.802973 -0.507016 0.050000
0.815640 -0.488712 0.050000
0.827326 -0.469874 0.050000
0.834386 -0.450880 0.050000
0.840399 -0.431411 0.050000
0.844315 -0.412158 0.050000
0.847155 -0.392660 0.050000
0.848615 -0.373334 0.050000
0.849000 -0.353950 0.050000
0.848212 -0.334791 0.050000
0.846343 -0.315776 0.050000
0.843384 -0.297172 0.050000
0.839405 -0.278997 0.050000
0.834534 -0.261564 0.050000
0.828974 -0.244901 0.050000
0.823109 -0.229301 0.050000
0.817411 -0.214555 0.050000
0.812161 -0.200468 0.050000
0.807850 -0.186921 0.050000
0.804259 -0.173164 0.050000
0.801522 -0.159631 0.050000
0.799485 -0.145645 0.050000
0.797907 -0.131459 0.050000
0.796651 -0.116940 0.050000
0.795554 -0.102182 0.050000
0.794528 -0.087224 0.050000
0.793509 -0.072127 0.050000
0.792472 -0.056944 0.050000
0.791403 -0.041702 0.050000
0.790297 -0.026437 0.050000
0.789156 -0.011159 0.050000
0.787979 0.004111 0.050000
0.786770 0.019364 0.050000
0.785532 0.034585 0.050000
0.784269 0.049759 0.050000
0.782988 0.064877 0.050000
0.781699 0.079911 0.050000
0.780415 0.094851 0.050000
0.779162 0.109655 0.050000
0.777971 0.124309 0.050000
0.776895 0.138756 0.050000
0.776009 0.152984 0.050000
0.775397 0.166953 0.050000
0.775216 0.180631 0.050000
0.775540 0.194133 0.050000
0.776573 0.207304 0.050000
0.778414 0.220532 0.050000
0.781040 0.233794 0.050000
0.784424 0.247325 0.050000
0.788466 0.261499 0.050000
0.792810 0.276586 0.050000
0.796722 0.292972 0.050000
0.799677 0.310416 0.050000
0.800809 0.328899 0.050000
0.800224 0.347544 0.050000
0.796614 0.366622 0.050000
0.791413 0.384460 0.050000
0.780269 0.401383 0.050000
0.772061 0.415117 0.050000
-0.750000 0.415000 0.050000
0.733871 0.415000 0.050000
0.717742 0.415000 0.050000
0.701613 0.415000 0.050000
0.685484 0.415000 0.050000
0.669355 0.415000 0.050000
0.653226 0.415000 0.050000
0.637097 0.415000 0.050000
0.620968 0.415000 0.050000
0.604839 0.415000 0.050000
0.588710 0.415000 0.050000
0.572581 0.415000 0.050000
0.556452 0.415000 0.050000
0.540323 0.415000 0.050000
0.524194 0.415000 0.050000
0.508065 0.415000 0.050000
0.491935 0.415000 0.050000
0.475807 0.415000 0.050000
0.459677 0.415000 0.050000
0.443548 0.415000 0.050000
0.427419 0.415000 0.050000
0.411290 0.415000 0.050000
0.395161 0.415000 0.050000
0.379032 0.415000 0.050000
0.362903 0.415000 0.050000
0.346774 0.415000 0.050000
0.330645 0.415000 0.050000
0.314516 0.415000 0.050000
0.298387 0.415000 0.050000
0.282258 0.415000 0.050000
0.266129 0.415000 0.050000
0.250000 0.415000 0.050000
0.233871 0.415000 0.050000
0.217742 0.415000 0.050000
0.201613 0.415000 0.050000
0.185484 0.415000 0.050000
0.169355 0.415000 0.050000
0.153226 0.415000 0.050000
0.137097 0.415000 0.050000
0.120968 0.415000 0.050000
0.104839 0.415000 0.050000
0.088710 0.415000 0.050000
0.072581 0.415000 0.050000
0.056452 0.415000 0.050000
0.040323 0.415000 0.050000
0.024194 0.415000 0.050000
0.008065 0.415000 0.050000
-0.008065 0.415000 0.050000
-0.024194 0.415000 0.050000
-0.040323 0.415000 0.050000
-0.056452 0.415000 0.050000
-0.072581 0.415000 0.050000
-0.088710 0.415000 0.050000
-0.104839 0.415000 0.050000
-0.120968 0.415000 0.050000
-0.137097 0.415000 0.050000
-0.153226 0.415000 0.050000
-0.169355 0.415000 0.050000
-0.185484 0.415000 0.050000
-0.201613 0.415000 0.050000
-0.217742 0.415000 0.050000
-0.233871 0.415000 0.050000
-0.250000 0.415000 0.050000
-0.266129 0.415000 0.050000
-0.282258 0.415000 0.050000
-0.298387 0.415000 0.050000
-0.314516 0.415000 0.050000
-0.330645 0.415000 0.050000
-0.346774 0.415000 0.050000
-0.362903 0.415000 0.050000
-0.379032 0.415000 0.050000
-0.395161 0.415000 0.050000
-0.411290 0.415000 0.050000
-0.427419 0.415000 0.050000
-0.443548 0.415000 0.050000
-0.459677 0.415000 0.050000
-0.475807 0.415000 0.050000
-0.491935 0.415000 0.050000
-0.508065 0.415000 0.050000
-0.524194 0.415000 0.050000
-0.540323 0.415000 0.050000
-0.556452 0.415000 0.050000
-0.572581 0.415000 0.050000
-0.588710 0.415000 0.050000
-0.604839 0.415000 0.050000
-0.620968 0.415000 0.050000
-0.637097 0.415000 0.050000
-0.653226 0.415000 0.050000
-0.669355 0.415000 0.050000
-0.685484 0.415000 0.050000
-0.701613 0.415000 0.050000
-0.717742 0.415000 0.050000
-0.733871 0.415000 0.050000
-0.750000 -0.500000 0.050000
-0.770545 0.412218 0.050000
-0.778497 0.398603 0.050000
-0.788775 0.381539 0.050000
-0.793926 0.363759 0.050000
-0.797592 0.344713 0.050000
-0.798542 0.326105 0.050000
-0.797939 0.307492 0.050000
-0.795728 0.289891 0.050000
-0.792616 0.272938 0.050000
-0.788947 0.257202 0.050000
-0.785338 0.242175 0.050000
-0.781926 0.227803 0.050000
-0.779057 0.213904 0.050000
-0.776729 0.200112 0.050000
-0.774971 0.186441 0.050000
-0.773762 0.172700 0.050000
-0.773013 0.158833 0.050000
-0.772626 0.144813 0.050000
-0.772524 0.130632 0.050000
-0.772628 0.116299 0.050000
-0.772885 0.101838 0.050000
-0.773252 0.087265 0.050000
-0.773702 0.072613 0.050000
-0.774213 0.057887 0.050000
-0.774775 0.043126 0.050000
-0.775377 0.028318 0.050000
-0.776013 0.013503 0.050000
-0.776676 -0.001338 0.050000
-0.777352 -0.016163 0.050000
-0.778034 -0.030979 0.050000
-0.778711 -0.045740 0.050000
-0.779392 -0.060419 0.050000
-0.780092 -0.074967 0.050000
-0.780861 -0.089328 0.050000
-0.781770 -0.103460 0.050000
-0.782921 -0.117310 0.050000
-0.784450 -0.130852 0.050000
-0.786505 -0.144097 0.050000
-0.789281 -0.157013 0.050000
-0.792867 -0.169922 0.050000
-0.797296 -0.182512 0.050000
-0.802753 -0.195514 0.050000
-0.808875 -0.208803 0.050000
-0.815696 -0.222785 0.050000
-0.822764 -0.237790 0.050000
-0.829634 -0.253860 0.050000
-0.835977 -0.270983 0.050000
-0.841459 -0.289008 0.050000
-0.845936 -0.307769 0.050000
-0.849207 -0.327155 0.050000
-0.851264 -0.346930 0.050000
-0.851901 -0.367105 0.050000
-0.851254 -0.387354 0.050000
-0.848868 -0.407887 0.050000
-0.845209 -0.428173 0.050000
-0.838935 -0.448690 0.050000
-0.831556 -0.468595 0.050000
-0.818806 -0.488087 0.050000
-0.805306 -0.506978 0.050000
-0.778643 -0.517843 0.050000
-0.759069 -0.535131 0.050000
-0.733871 -0.500000 0.050000
-0.717742 -0.500000 0.050000
-0.701613 -0.500000 0.050000
-0.685484 -0.500000 0.050000
-0.669355 -0.500000 0.050000
-0.653226 -0.500000 0.050000
-0.637097 -0.500000 0.050000
-0.620968 -0.500000 0.050000
-0.604839 -0.500000 0.050000
-0.588710 -0.500000 0.050000
-0.572581 -0.500000 0.050000
-0.556452 -0.500000 0.050000
-0.540323 -0.500000 0.050000
-0.524194 -0.500000 0.050000
-0.508065 -0.500000 0.050000
-0.491935 -0.500000 0.050000
-0.475807 -0.500000 0.050000
-0.459677 -0.500000 0.050000
-0.443548 -0.500000 0.050000
-0.427419 -0.500000 0.050000
-0.411290 -0.500000 0.050000
-0.395161 -0.500000 0.050000
-0.379032 -0.500000 0.050000
-0.362903 -0.500000 0.050000
-0.346774 -0.500000 0.050000
-0.330645 -0.500000 0.050000
-0.314516 -0.500000 0.050000
-0.298387 -0.500000 0.050000
-0.282258 -0.500000 0.050000
-0.266129 -0.500000 0.050000
-0.250000 -0.500000 0.050000
-0.233871 -0.500000 0.050000
-0.217742 -0.500000 0.050000
-0.201613 -0.500000 0.050000
-0.185484 -0.500000 0.050000
-0.169355 -0.500000 0.050000
-0.153226 -0.500000 0.050000
-0.137097 -0.500000 0.050000
-0.120968 -0.500000 0.050000
-0.104839 -0.500000 0.050000
-0.088710 -0.500000 0.050000
-0.072581 -0.500000 0.050000
-0.056452 -0.500000 0.050000
-0.040323 -0.500000 0.050000
-0.024194 -0.500000 0.050000
-0.008065 -0.500000 0.050000
0.008065 -0.500000 0.050000
0.024194 -0.500000 0.050000
0.040323 -0.500000 0.050000
0.056452 -0.500000 0.050000
0.072581 -0.500000 0.050000
0.088710 -0.500000 0.050000
0.104839 -0.500000 0.050000
0.120968 -0.500000 0.050000
0.137097 -0.500000 0.050000
0.153226 -0.500000 0.050000
0.169355 -0.500000 0.050000
0.185484 -0.500000 0.050000
0.201613 -0.500000 0.050000
0.217742 -0.500000 0.050000
0.233871 -0.500000 0.050000
0.250000 -0.500000 0.050000
0.266129 -0.500000 0.050000
0.282258 -0.500000 0.050000
0.298387 -0.500000 0.050000
0.314516 -0.500000 0.050000
0.330645 -0.500000 0.050000
0.346774 -0.500000 0.050000
0.362903 -0.500000 0.050000
0.379032 -0.500000 0.050000
0.395161 -0.500000 0.050000
0.411290 -0.500000 0.050000
0.427419 -0.500000 0.050000
0.443548 -0.500000 0.050000
0.459677 -0.500000 0.050000
0.475807 -0.500000 0.050000
0.491935 -0.500000 0.050000
0.508065 -0.500000 0.050000
0.524194 -0.500000 0.050000
0.540323 -0.500000 0.050000
0.556452 -0.500000 0.050000
0.572581 -0.500000 0.050000
0.588710 -0.500000 0.050000
0.604839 -0.500000 0.050000
0.620968 -0.500000 0.050000
0.637097 -0.500000 0.050000
0.653226 -0.500000 0.050000
0.669355 -0.500000 0.050000
0.685484 -0.500000 0.050000
0.701613 -0.500000 0.050000
0.717742 -0.500000 0.050000
0.733871 -0.500000 0.050000
0.770965 -0.505475 0.050000
0.781301 -0.506592 0.050000
0.794671 -0.494886 0.050000
0.806883 -0.480845 0.050000
0.815148 -0.463541 0.050000
0.822348 -0.445996 0.050000
0.827206 -0.427816 0.050000
0.831114 -0.409419 0.050000
0.833525 -0.390935 0.050000
0.834951 -0.372336 0.050000
0.835170 -0.353822 0.050000
0.834353 -0.335344 0.050000
0.832397 -0.317122 0.050000
0.829367 -0.299155 0.050000
0.825231 -0.281712 0.050000
0.820091 -0.264821 0.050000
0.814085 -0.248806 0.050000
0.807552 -0.233529 0.050000
0.801002 -0.219104 0.050000
0.795186 -0.205107 0.050000
0.790221 -0.190971 0.050000
0.786406 -0.177139 0.050000
0.783615 -0.162733 0.050000
0.781654 -0.148306 0.050000
0.780272 -0.133605 0.050000
0.779214 -0.118760 0.050000
0.778296 -0.103759 0.050000
0.777401 -0.088654 0.050000
0.776476 -0.073475 0.050000
0.775498 -0.058242 0.050000
0.774464 -0.042984 0.050000
0.773375 -0.027708 0.050000
0.772235 -0.012432 0.050000
0.771048 0.002837 0.050000
0.769816 0.018087 0.050000
0.768542 0.033309 0.050000
0.767228 0.048494 0.050000
0.765879 0.063628 0.050000
0.764499 0.078703 0.050000
0.763099 0.093695 0.050000
0.761694 0.108603 0.050000
0.760314 0.123390 0.050000
0.759005 0.138064 0.050000
0.757845 0.152584 0.050000
[...]
CELL_DATA 34596
SCALARS Mises_Stress_Abs(MPa) float 1
LOOKUP_TABLE default
117.622000
122.841000
88.632600
106.529000
113.984000
107.175000
114.810000
112.368000
76.301500
117.117000
29.941700
100.163000
55.137400
13.699800
4.740110
2.528380
1.961040
0.802736
43.694600
0.438814
5.159910
21.303600
64.866500
3.933360
3.058920
2.956080
1.536170
0.747542
64.292400
37.006800
57.245600
18.370000
25.256900
28.946600
45.184100
52.201000
40.916300
27.510800
43.825700
28.926800
46.194000
54.371300
61.499900
67.770400
31.774500
45.409600
3.347350
4.101610
2.816520
3.151830
1.467540
55.837800
64.415900
54.087000
42.996400
34.393200
57.210700
66.837900
57.840800
60.696400
60.699200
56.293500
59.434800
18.852500
53.712500
60.824200
18.975700
47.792200
38.739400
2.258560
3.723480
4.183870
4.064140
3.285100
55.518400
39.427800
66.265500
130.740000
42.917200
41.650700
141.840000
134.834000
42.805000
60.136000
150.206000
45.952600
38.308100
141.368000
143.525000
71.296100
141.488000
138.523000
3.889250
5.120690
3.970340
4.664790
4.446920
29.575400
35.123700
53.336700
47.125400
70.317000
78.399700
35.825700
33.665300
53.810600
31.114500
5.269810
5.876170
4.884680
5.049340
33.047900
26.059000
24.246800
10.920900
14.015300
46.436000
28.661700
38.469400
4.601840
49.095300
44.174000
54.099800
35.495800
50.180800
30.328100
22.266400
6.823560
5.479500
5.407080
6.254300
6.924200
25.620500
32.634700
37.219300
34.157700
23.093400
32.228200
28.510000
28.414200
24.328700
28.476000
6.791050
8.204470
7.511610
6.365550
6.416350
27.004500
28.324600
21.669600
31.048500
27.874200
15.037500
21.814100
29.056500
37.825800
24.648600
7.398600
10.275800
6.617790
8.030480
8.685690
15.058800
22.939300
24.530800
26.750400
19.304300
7.302050
9.235750
10.686800
10.608600
8.160990
10.218700
27.385900
30.363400
26.362600
10.339500
18.428900
20.905600
18.451600
28.252500
13.762200
10.784100
10.052600
9.846380
14.206000
7.925440
19.929600
27.333900
30.910000
25.970500
17.866800
19.412900
15.389800
17.221000
12.935100
20.387500
10.998500
12.268700
12.942900
8.485340
27.371600
13.646100
23.215900
29.089300
26.235600
32.064900
15.660500
14.054000
19.655200
11.674700
14.910500
9.073760
12.934400
13.865700
14.952100
30.542200
18.798800
36.534800
32.941100
42.123400
28.339700
12.386200
13.912200
14.482700
11.042900
12.258100
14.815000
18.412000
16.421700
15.707100
14.937800
38.693500
39.400800
31.195800
35.767100
12.379800
10.128900
47.822700
11.533100
9.568120
11.509400
32.191900
19.831200
14.557500
28.418200
21.439900
61.727700
36.213900
34.572200
58.559600
50.828000
9.272300
8.932440
8.284540
8.524060
10.285600
49.289000
21.922200
21.897600
22.952100
38.599900
62.810700
25.366600
41.899000
77.303300
44.727500
6.795110
8.354350
7.410370
6.796460
8.143010
53.557900
104.509000
31.060800
93.832100
106.354000
25.709700
30.262200
94.466700
95.947700
41.169600
36.170700
45.211700
111.714000
53.741100
106.606000
41.334400
59.917200
6.505320
5.571270
6.603810
6.707070
3.917750
30.145200
61.528600
53.999500
24.385100
33.675600
40.595400
51.754200
59.892100
58.904400
23.714100
46.115800
37.844300
39.404900
53.176700
55.262300
47.089700
51.574300
5.413320
2.882960
4.253700
5.154390
5.329230
29.714900
43.718800
28.460000
35.766700
25.012500
7.510490
42.951100
57.258700
11.876800
35.497200
34.297200
14.479200
58.788000
8.041450
24.887700
46.535800
14.575800
1.293790
3.122150
4.175590
4.180990
3.717120
37.022500
23.966500
32.899600
33.063500
38.903900
37.425300
44.260100
39.324100
38.915200
38.837300
17.667200
38.861900
44.622600
53.218600
50.429500
39.875400
49.027800
0.975585
3.793570
1.940550
2.602790
3.206520
13.192000
81.992200
24.901300
79.912300
61.742200
51.597100
35.038100
70.965100
86.631200
78.472400
87.286800
17.487900
67.692800
33.447400
54.766300
6.123090
78.721000
3.064150
2.198670
1.451640
3.406540
0.968579
0.119638
13.453500
22.630500
7.568510
7.741340
19.230600
13.968300
12.381600
6.981600
11.196800
6.720620
8.387310
5.660440
5.064090
9.751980
8.700780
4.713700
6.966980
4.409770
5.228120
5.000730
19.038500
20.523900
15.217100
18.301300
15.426900
16.107500
13.497700
15.983300
19.502900
10.892500
5.333020
13.304400
20.288700
7.158720
4.312750
5.740870
15.278700
10.317300
18.704400
18.068400
19.302600
9.381530
9.518120
5.794450
9.446340
6.143770
8.174440
6.210190
7.963820
7.348260
9.846530
10.671800
9.482710
2.343350
6.326130
4.766780
4.224870
6.310220
5.350670
5.078720
5.883320
4.245210
5.222820
9.947850
5.622450
6.464060
6.727410
7.440660
6.837060
11.357600
8.376510
7.872630
10.209300
8.164130
9.962640
9.654210
5.936960
3.304200
14.586500
11.499800
12.408100
12.741600
9.969210
13.123900
13.070400
14.194400
6.360120
16.247900
11.187400
13.582300
15.016600
7.873560
14.430600
11.019900
14.203000
11.550300
14.060100
12.466000
13.279000
9.726430
15.863700
13.267500
14.787500
12.003000
14.341000
11.594100
10.049700
4.224450
8.464120
11.057900
27.281300
27.644300
12.786000
16.649300
13.329200
20.709200
17.477000
23.473300
34.722500
32.608000
32.197700
24.763300
28.820200
23.903300
19.569100
20.813900
22.540100
31.443100
10.567800
12.270100
10.925200
14.425800
6.700310
6.620220
14.117300
18.400700
21.099600
24.107800
27.264000
8.206720
8.866940
0.004337
0.002342
19.055700
16.315800
13.851100
16.360200
15.261400
21.615800
6.254010
0.008262
0.015676
6.542780
20.172400
9.228250
0.004206
21.339300
0.007561
2.345240
3.558330
11.702500
7.749700
4.904280
0.014023
3.421550
12.148900
22.060400
9.059680
0.028334
10.970300
21.491200
4.952360
0.004578
8.528230
0.006550
3.500040
7.252710
2.733370
1.458520
21.309300
0.012167
10.516800
13.037600
0.025389
22.989000
10.235000
0.004730
3.314360
7.748460
8.507270
0.005943
2.506600
3.958600
0.012055
1.291140
13.052800
21.874000
0.024615
9.844200
0.004599
0.006186
22.449400
10.963700
9.509000
11.973100
5.110560
14.738600
16.552100
0.004515
0.024131
20.685000
0.011725
10.184900
3.582000
11.642100
10.322800
22.406400
8.150580
0.007673
0.004695
0.003003
20.668100
29.774300
28.015900
0.023801
19.096400
0.011637
10.241100
11.257900
3.866480
10.769400
20.893000
0.011845
0.002466
0.007341
0.011244
22.638700
30.405500
20.606000
0.023663
22.216200
36.523600
6.459750
9.734400
0.011567
8.068690
17.438800
19.307300
10.204900
14.720000
0.011659
0.008352
0.003360
13.364300
0.014520
0.023576
13.821300
26.664100
34.377000
0.003657
0.011546
13.784200
10.451700
6.920860
7.598090
16.869400
10.413700
33.244100
0.006440
0.014477
3.635650
13.430500
52.987700
36.237000
48.687200
0.023214
25.755400
12.262000
14.452400
0.011319
9.037140
4.664340
9.694690
10.258100
9.601160
14.159300
0.006868
33.338000
23.668700
23.805000
13.216100
22.585700
6.597400
11.992600
2.396830
0.023130
0.004439
11.767800
0.010888
4.419940
10.784500
18.094500
24.467300
17.760900
11.032400
17.855100
24.312300
24.564900
18.956500
9.317680
10.784600
3.834970
8.675260
2.240480
7.746070
4.268050
2.082890
9.663410
9.501860
0.005507
0.011734
12.103500
15.637600
24.102800
8.333460
16.601100
13.100800
24.328100
16.572000
17.497700
26.221600
19.394700
25.866700
28.301100
14.556200
3.254280
28.240200
26.430900
17.005800
26.338500
8.130660
26.922200
33.458500
14.205200
9.534130
29.602000
12.686300
25.871100
26.638000
30.130200
41.338300
9.944150
43.155100
18.715000
13.828000
13.185500
16.687700
10.574000
11.892600
2.845570
14.707600
12.525800
14.779700
12.384000
8.316450
9.324790
9.310300
13.657300
15.229600
18.980800
16.919000
13.869300
11.730700
12.812800
6.194110
8.497650
0.021967
3.774400
13.208700
10.990400
7.932190
29.009500
34.472100
37.937200
23.337000
33.306700
20.434000
23.448100
3.957790
14.975300
7.098780
15.910900
18.364400
10.102900
8.227950
11.657800
13.246200
12.047700
4.495370
5.745250
14.273000
5.831680
15.044500
3.764770
9.389240
15.400600
7.704790
10.546500
20.646200
27.121900
6.911060
16.868400
12.183000
13.381700
11.736700
21.043700
26.622800
26.199900
11.214500
8.500110
12.500100
14.281000
18.738800
12.516400
22.365300
16.827500
14.242900
11.021500
16.752700
10.787500
5.622770
12.740300
7.037760
13.838600
12.809200
18.226500
6.674770
9.539020
4.904300
8.901700
13.141200
6.409990
19.108000
7.316500
15.283400
15.936700
3.407990
11.466200
7.865720
5.148110
11.765900
8.388830
4.820010
8.019640
11.625600
11.244900
5.961270
7.209690
15.268300
8.840230
3.970060
6.910100
4.530920
8.318960
5.514490
9.430750
10.982400
7.001220
6.563650
3.408180
11.149600
4.615130
8.060920
10.811800
11.797900
6.602930
4.505120
4.816690
3.833050
7.858570
9.659100
5.521770
5.190590
6.130830
6.753560
7.847460
6.512690
8.489130
4.693060
5.356070
2.801960
4.020680
5.497230
2.737790
1.840240
6.684270
2.819680
3.150810
3.368680
2.812560
1.045360
3.598030
6.621750
4.904730
4.700840
3.469980
2.418520
1.758080
4.830850
8.246380
2.531760
6.628430
6.853830
6.838770
4.100390
1.632650
1.362490
2.779760
4.025570
1.655060
7.211640
10.148000
26.414100
3.085050
4.767840
3.482420
7.545580
9.460870
15.194500
7.887760
17.986100
12.196100
0.010933
8.368640
0.008123
0.012181
24.329500
28.649600
14.034500
16.249000
18.242400
0.009273
0.012472
6.910330
0.011035
10.978900
13.733100
11.302800
24.445400
16.780800
7.987080
0.013029
5.939670
0.011097
0.011302
14.073100
12.023400
11.079100
20.371200
2.245710
2.896630
0.013085
6.865610
4.736270
0.011800
0.013802
16.939100
9.595210
9.831070
12.168700
0.012367
0.014912
4.651860
0.015872
4.146040
13.239100
8.727000
10.462900
8.368520
3.165110
3.912230
0.013230
0.018607
0.016128
11.174900
6.746110
7.647230
8.063340
0.022630
0.013849
0.017865
6.259710
7.371100
7.210150
5.825120
0.026174
0.019082
1.594170
2.564420
0.014767
4.166210
5.460950
5.033540
7.468370
3.238470
5.262610
3.384900
3.926170
1.885060
3.532070
4.330820
7.926200
40.765500
26.707200
21.724300
50.244300
32.241000
12.772900
0.012855
0.007241
22.663900
13.806700
46.839900
23.467400
27.234600
41.867700
0.007087
17.071500
11.473400
0.011402
32.810800
21.442200
23.124200
38.274800
17.067600
9.493710
16.350600
0.007298
0.012128
0.011050
31.210500
22.061300
34.005200
18.140200
12.751700
16.929300
33.347900
33.824200
35.410600
22.484300
35.486500
36.618500
28.211100
30.246700
37.836600
40.141900
46.853500
40.309700
47.440000
44.465000
42.285200
49.878200
44.220200
45.913100
38.351800
42.346100
7.751960
44.594000
46.997900
27.803700
17.845500
10.847000
48.930700
51.513400
37.187000
20.983700
22.307000
17.047900
18.329300
19.238200
19.962400
20.480100
19.481600
19.025200
18.489400
17.391800
20.533400
25.269500
22.976300
27.220500
24.907500
25.608800
21.631300
21.782400
24.047300
22.774700
23.931400
25.083600
29.122200
34.005400
11.368600
29.483500
30.986800
23.705700
32.003300
23.272300
49.092900
18.136300
47.037900
43.983900
49.172900
24.797800
22.628500
3.737460
4.454040
4.817380
4.081750
9.415610
5.174380
6.593160
3.186380
2.693530
14.890200
4.339220
3.389780
3.743200
4.993410
4.628650
2.924800
4.088880
2.575690
5.347510
8.018340
5.312740
10.082600
32.469100
19.959800
26.106300
34.239200
36.840500
38.749500
17.135800
25.988200
12.469400
7.290130
17.227800
18.704500
16.233000
15.100800
16.685200
18.305100
17.198100
17.958100
17.781600
18.028200
18.664900
19.170700
20.821400
18.255400
13.768400
19.824700
20.130300
20.773600
21.447900
7.561780
19.173500
43.478800
39.666000
39.249200
23.680100
36.120300
30.259300
32.504500
24.372100
31.118300
17.085200
12.215900
33.032100
36.407600
35.218500
36.322500
37.709400
34.152400
39.073300
34.748400
37.722400
38.922700
41.358000
42.100600
40.513000
39.913300
40.706400
45.778600
24.467900
44.529300
20.167200
43.808100
37.708600
38.341700
50.745500
39.890500
58.211400
51.404200
54.177700
48.068900
55.986900
56.610300
58.761500
60.483200
53.784300
51.509300
61.172700
62.771700
61.952200
71.693500
72.741600
64.878300
66.664600
62.333000
36.330800
26.881200
60.598000
39.636100
56.062200
26.700200
36.751300
0.005963
18.529900
0.010024
28.106800
63.621900
18.991400
37.126300
58.971000
0.009149
30.887100
0.016008
22.310900
31.745800
23.212200
55.348500
58.556200
38.052800
14.754700
21.881900
0.007642
0.013757
0.009959
0.014984
0.013115
0.012029
0.011530
0.021612
0.014376
0.037618
0.018135
0.540333
1.514110
0.890752
0.032605
0.926109
16.603900
21.759200
14.151000
10.121800
8.394120
5.086100
3.801160
1.707220
0.972135
0.805118
0.675467
0.359433
0.228407
0.096553
0.044359
0.308443
0.223778
0.129308
0.099929
0.055212
0.037030
0.299793
0.222848
0.120769
0.071346
0.058699
0.041867
0.203070
0.175100
0.129573
0.090733
0.066700
0.057746
0.210204
0.176934
0.135740
0.103194
0.082714
0.072082
0.173160
0.165424
0.141944
0.113968
0.094077
0.084345
0.173672
0.163529
0.143446
0.120315
0.102621
0.093173
0.158879
0.157507
0.143759
0.123552
0.107457
0.098824
0.155911
0.153453
0.141602
0.124092
0.109420
0.101340
0.147514
0.147740
0.138254
0.122304
0.108616
0.101013
0.142347
0.141746
0.133002
0.118333
0.105282
0.097934
0.134017
0.133995
0.126041
0.112085
0.099404
0.092173
0.125280
0.124512
0.116773
0.103458
0.090949
0.083712
0.113162
0.112348
0.105022
0.092245
0.079876
0.072562
0.098530
0.097286
0.090407
0.078490
0.066287
0.058873
0.080236
0.079247
0.073369
0.062621
0.050776
0.043182
0.060835
0.060334
0.055653
0.046544
0.035248
0.027240
0.048173
0.048619
0.044466
0.036597
0.026588
0.018996
0.055304
0.056232
0.050682
0.041788
0.033818
0.028787
0.075735
0.076308
0.068330
0.057027
0.049219
0.044880
0.096110
0.096709
0.086774
0.073174
0.064423
0.060039
0.109332
0.111734
0.101463
0.085866
0.076697
0.072163
0.117991
0.120758
0.110148
0.094271
0.084999
0.080659
0.119072
0.122954
0.113224
0.098085
0.089471
0.085511
0.113908
0.119434
0.111664
0.098049
0.090553
0.087181
0.105795
0.112253
0.106587
0.095247
0.089000
0.086342
0.095875
0.103203
0.099678
0.090592
0.085744
0.083746
0.085979
0.093831
0.092151
0.085180
0.081533
0.080161
0.077036
0.085213
0.085017
0.079734
0.077093
0.076206
0.069823
0.078068
0.078865
0.074840
0.072900
0.072373
0.064426
0.072625
0.074045
0.070787
0.069286
0.068976
0.060852
0.068906
0.070600
0.067713
0.066400
0.066194
0.058797
0.066693
0.068417
0.065591
0.064278
0.064086
0.057843
0.065646
0.067296
0.064301
0.062876
0.062639
0.057755
0.065512
0.066979
0.063718
0.062108
0.061802
0.058168
0.066022
0.067330
0.063708
0.061902
0.061511
0.059129
0.067132
0.068229
0.064212
0.062188
0.061713
0.060576
0.068825
0.069675
0.065184
0.062927
0.062355
0.062649
0.071169
0.071679
0.066611
0.064078
0.063388
0.065459
0.074249
0.074259
0.068469
0.065591
0.064752
0.069086
0.078106
0.077415
0.070704
0.067392
0.066352
0.073594
0.082739
0.081073
0.073216
0.069350
0.068054
0.078895
0.088016
0.085068
0.075814
0.071281
0.069659
0.084777
0.093643
0.089081
0.078225
0.072902
0.070900
0.090711
0.099070
0.092622
0.080018
0.073870
0.071423
0.095938
0.103453
0.094959
0.080725
0.073707
0.070827
0.099160
0.105693
0.095310
0.079632
0.071985
0.068648
0.099585
0.104589
0.092513
0.076310
0.068196
0.064474
0.095044
0.098845
0.086167
0.070265
0.062051
0.057987
0.084792
0.087971
0.075895
0.061502
0.053612
0.049076
0.071445
0.073289
0.062355
0.051288
0.043507
0.038037
0.054644
0.056377
0.048796
0.042158
0.034030
0.025861
0.042763
0.044545
0.042056
0.039965
0.029605
0.015891
0.047949
0.048246
0.048472
0.047166
0.033931
0.016481
0.061489
0.060740
0.061144
0.058704
0.043107
0.025342
0.077383
0.075558
0.074986
0.069949
0.051894
0.033940
0.083901
0.082088
0.081487
0.077330
0.057842
0.039285
0.091536
0.088525
0.087647
0.080962
0.058820
0.040407
0.075803
0.073446
0.074761
0.075393
0.054070
0.036763
0.081898
0.073401
0.075261
0.065193
0.040935
0.030067
0.071591
0.075689
0.072408
0.047070
0.037812
0.024800
0.412872
0.400615
0.396578
0.245960
0.090087
0.033945
1.147450
0.832484
0.386895
0.203621
0.091192
0.043840
0.319457
0.233557
0.108978
0.097199
0.055292
0.038354
0.049564
0.058744
0.064676
0.056807
0.047237
0.043537
0.107498
0.099958
0.077656
0.061442
0.054124
0.050041
0.115263
0.115472
0.099000
0.075986
0.062246
0.056294
0.126074
0.125634
0.109532
0.086766
0.070239
0.061754
0.122077
0.127177
0.115325
0.093386
0.075903
0.066470
0.124010
0.127316
0.116854
0.096844
0.079592
0.069776
0.124881
0.116449
0.097839
0.081125
0.071424
0.118348
0.121922
0.114073
0.096838
0.080701
0.071156
0.113904
0.117599
0.110413
0.094044
0.078372
0.068981
0.110576
0.112616
0.105296
0.089665
0.074313
0.064986
0.105467
0.106546
0.099016
0.083854
0.068774
0.059482
0.101298
0.100162
0.091738
0.077070
0.062316
0.053120
0.097743
0.094240
0.084531
0.070196
0.056015
0.047155
0.098406
0.091413
0.079119
0.064890
0.051627
0.043504
0.105285
0.094719
0.078665
0.063534
0.051139
0.044140
0.118328
0.105152
0.084652
0.066785
0.054806
0.048494
0.131392
0.117240
0.093214
0.072588
0.060021
0.053992
0.126793
0.117816
0.096816
0.075909
0.063988
0.058460
0.119273
0.115262
0.097637
0.077227
0.066485
0.061363
0.111644
0.111718
0.096598
0.077941
0.067889
0.063329
0.101759
0.107268
0.095836
0.078124
0.069167
0.064961
0.095016
0.103596
0.094864
0.078489
0.070286
0.066592
0.091933
0.100516
0.092974
0.078512
0.071138
0.067953
0.088038
0.096242
0.090104
0.077562
0.071343
0.068673
0.082792
0.090522
0.085948
0.075690
0.070591
0.068537
0.076147
0.083776
0.080993
0.072951
0.069032
0.067536
0.069409
0.077061
0.075855
0.069821
0.066903
0.065908
0.063263
0.071077
0.071234
0.066702
0.064580
0.063956
0.058623
0.066507
0.067513
0.063985
0.062357
0.061982
0.055634
0.063483
0.064907
0.061856
0.060458
0.060205
0.054092
0.061844
0.063368
0.060368
0.058992
0.058758
0.053675
0.061296
0.062642
0.059472
0.057967
0.057697
0.053675
0.061331
0.062550
0.059036
0.057364
0.057025
0.054136
0.061869
0.062868
0.059008
0.057132
0.056724
0.054763
0.062756
0.063602
0.059318
0.057248
0.056761
0.055846
0.064113
0.064733
0.059971
0.057672
0.057102
0.057423
0.066027
0.066305
0.060941
0.058371
0.057696
0.059627
0.068560
0.068340
0.062198
0.059289
0.058476
0.062500
0.071757
0.070810
0.063683
0.060341
0.059350
0.065990
0.075561
0.073649
0.065288
0.061419
0.060198
0.069968
0.079846
0.076707
0.066878
0.062376
0.060879
0.074175
0.084358
0.079769
0.068260
0.063063
0.061240
0.078365
0.088785
0.082538
0.069268
0.063321
0.061156
0.082278
0.092758
0.084749
0.069705
0.063084
0.060535
0.086187
0.096106
0.086122
0.069633
0.062279
0.059385
0.090418
0.098873
0.086872
0.068940
0.061033
0.057738
0.096820
0.101632
0.086620
0.067886
0.059428
0.055604
0.104332
0.103898
0.085589
0.066759
0.057338
0.052903
0.108692
0.104107
0.084246
0.065011
0.054806
0.049248
0.111687
0.102747
0.081220
0.063254
0.051337
0.044232
0.110600
0.097947
0.076471
0.060929
0.047289
0.037356
0.096177
0.084936
0.069824
0.058791
0.043224
0.028872
0.081193
0.073426
0.066021
0.059412
0.040998
0.020054
0.067084
0.064200
0.064987
0.062428
0.041839
0.014361
0.056694
0.058797
0.066643
0.066977
0.045192
0.017403
0.041488
0.049554
0.065586
0.071777
0.050256
0.026937
0.046504
0.051514
0.069586
0.078079
0.056636
0.038097
0.088413
0.093645
0.097246
0.094286
0.065815
0.045750
0.262602
0.259336
0.252306
0.166844
0.078058
0.044112
0.485040
0.466731
0.458874
0.304909
0.101325
0.037961
1.061400
0.808200
0.416922
0.198204
0.092403
0.050890
0.578492
0.404156
0.190688
0.120672
0.081861
0.050238
0.234092
0.174255
0.129664
0.097386
0.070123
0.059036
0.066057
0.105096
0.103827
0.079129
0.066531
0.060380
0.067112
0.101468
0.096744
0.076291
0.063593
0.057419
0.074964
0.102857
0.098740
0.077215
0.061350
0.053181
0.083233
0.104573
0.099897
0.078626
0.060184
0.049487
0.086531
0.104541
0.100160
0.079222
0.059403
0.046996
0.089483
0.103644
0.099094
0.079035
0.058712
0.045336
0.090224
0.102095
0.097413
0.078082
0.057798
0.044075
0.091774
0.100479
0.095198
0.076632
0.056668
0.042964
0.092913
0.099046
0.092935
0.074956
0.055576
0.042250
0.096317
0.098738
0.091042
0.073621
0.055127
0.042621
0.102056
0.100486
0.090497
0.073398
0.056176
0.044996
0.112923
0.106153
0.092382
0.075255
0.059480
0.049908
0.129673
0.117196
0.098258
0.079953
0.065247
0.057096
0.152100
0.134250
0.108321
0.086998
0.072500
0.064963
0.176330
0.154710
0.121320
0.095110
0.078997
0.071480
0.194230
0.173124
0.134808
0.101089
0.082679
0.074591
0.176958
0.161551
0.127795
0.096925
0.080840
0.073457
0.153971
0.144958
0.116369
0.089446
0.075492
0.069283
0.123792
0.125742