# vtk DataFile Version 2.0
test
ASCII
DATASET UNSTRUCTURED_GRID
POINTS 41454 float
0.750000 -0.500000 0.050000
0.750000 0.425000 0.050000
0.767392 -0.527054 0.050000
0.779632 -0.510208 0.050000
0.802483 -0.497239 0.050000
0.812018 -0.479222 0.050000
0.821685 -0.460510 0.050000
0.827211 -0.442140 0.050000
0.832064 -0.423198 0.050000
0.835126 -0.404591 0.050000
0.837338 -0.385691 0.050000
0.838380 -0.366987 0.050000
0.838522 -0.348181 0.050000
0.837658 -0.329582 0.050000
0.835862 -0.311066 0.050000
0.833117 -0.292910 0.050000
0.829470 -0.275093 0.050000
0.825035 -0.257931 0.050000
0.819983 -0.241417 0.050000
0.814657 -0.225853 0.050000
0.809475 -0.211023 0.050000
0.804694 -0.196795 0.050000
0.800753 -0.183040 0.050000
0.797491 -0.169124 0.050000
0.795003 -0.155379 0.050000
0.793150 -0.141237 0.050000
0.791721 -0.126910 0.050000
0.790588 -0.112275 0.050000
0.789607 -0.097424 0.050000
0.788698 -0.082385 0.050000
0.787802 -0.067219 0.050000
0.786896 -0.051966 0.050000
0.785965 -0.036657 0.050000
0.785005 -0.021320 0.050000
0.784014 -0.005969 0.050000
0.782993 0.009381 0.050000
0.781945 0.024718 0.050000
0.780869 0.040031 0.050000
0.779773 0.055305 0.050000
0.778659 0.070531 0.050000
0.777538 0.085686 0.050000
0.776419 0.100758 0.050000
0.775326 0.115711 0.050000
0.774285 0.130531 0.050000
0.773342 0.145166 0.050000
0.772565 0.159603 0.050000
0.772028 0.173804 0.050000
0.771870 0.187739 0.050000
0.772165 0.201495 0.050000
0.773091 0.214966 0.050000
0.774749 0.228439 0.050000
0.777146 0.241963 0.050000
0.780239 0.255723 0.050000
0.783937 0.270061 0.050000
0.787866 0.285245 0.050000
0.791413 0.301517 0.050000
0.794103 0.318752 0.050000
0.795211 0.336852 0.050000
0.794758 0.355133 0.050000
0.791744 0.373763 0.050000
0.787159 0.391332 0.050000
0.777695 0.408296 0.050000
0.770019 0.421889 0.050000
-0.750000 0.425000 0.050000
0.733871 0.425000 0.050000
0.717742 0.425000 0.050000
0.701613 0.425000 0.050000
0.685484 0.425000 0.050000
0.669355 0.425000 0.050000
0.653226 0.425000 0.050000
0.637097 0.425000 0.050000
0.620968 0.425000 0.050000
0.604839 0.425000 0.050000
0.588710 0.425000 0.050000
0.572581 0.425000 0.050000
0.556452 0.425000 0.050000
0.540323 0.425000 0.050000
0.524194 0.425000 0.050000
0.508065 0.425000 0.050000
0.491935 0.425000 0.050000
0.475807 0.425000 0.050000
0.459677 0.425000 0.050000
0.443548 0.425000 0.050000
0.427419 0.425000 0.050000
0.411290 0.425000 0.050000
0.395161 0.425000 0.050000
0.379032 0.425000 0.050000
0.362903 0.425000 0.050000
0.346774 0.425000 0.050000
0.330645 0.425000 0.050000
0.314516 0.425000 0.050000
0.298387 0.425000 0.050000
0.282258 0.425000 0.050000
0.266129 0.425000 0.050000
0.250000 0.425000 0.050000
0.233871 0.425000 0.050000
0.217742 0.425000 0.050000
0.201613 0.425000 0.050000
0.185484 0.425000 0.050000
0.169355 0.425000 0.050000
0.153226 0.425000 0.050000
0.137097 0.425000 0.050000
0.120968 0.425000 0.050000
0.104839 0.425000 0.050000
0.088710 0.425000 0.050000
0.072581 0.425000 0.050000
0.056452 0.425000 0.050000
0.040323 0.425000 0.050000
0.024194 0.425000 0.050000
0.008065 0.425000 0.050000
-0.008065 0.425000 0.050000
-0.024194 0.425000 0.050000
-0.040323 0.425000 0.050000
-0.056452 0.425000 0.050000
-0.072581 0.425000 0.050000
-0.088710 0.425000 0.050000
-0.104839 0.425000 0.050000
-0.120968 0.425000 0.050000
-0.137097 0.425000 0.050000
-0.153226 0.425000 0.050000
-0.169355 0.425000 0.050000
-0.185484 0.425000 0.050000
-0.201613 0.425000 0.050000
-0.217742 0.425000 0.050000
-0.233871 0.425000 0.050000
-0.250000 0.425000 0.050000
-0.266129 0.425000 0.050000
-0.282258 0.425000 0.050000
-0.298387 0.425000 0.050000
-0.314516 0.425000 0.050000
-0.330645 0.425000 0.050000
-0.346774 0.425000 0.050000
-0.362903 0.425000 0.050000
-0.379032 0.425000 0.050000
-0.395161 0.425000 0.050000
-0.411290 0.425000 0.050000
-0.427419 0.425000 0.050000
-0.443548 0.425000 0.050000
-0.459677 0.425000 0.050000
-0.475807 0.425000 0.050000
-0.491935 0.425000 0.050000
-0.508065 0.425000 0.050000
-0.524194 0.425000 0.050000
-0.540323 0.425000 0.050000
-0.556452 0.425000 0.050000
-0.572581 0.425000 0.050000
-0.588710 0.425000 0.050000
-0.604839 0.425000 0.050000
-0.620968 0.425000 0.050000
-0.637097 0.425000 0.050000
-0.653226 0.425000 0.050000
-0.669355 0.425000 0.050000
-0.685484 0.425000 0.050000
-0.701613 0.425000 0.050000
-0.717742 0.425000 0.050000
-0.733871 0.425000 0.050000
-0.750000 -0.500000 0.050000
-0.768399 0.419588 0.050000
-0.775782 0.405985 0.050000
-0.784573 0.388916 0.050000
-0.789118 0.371391 0.050000
-0.792223 0.352749 0.050000
-0.793017 0.334501 0.050000
-0.792410 0.316251 0.050000
-0.790411 0.298880 0.050000
-0.787606 0.282072 0.050000
-0.784305 0.266318 0.050000
-0.781043 0.251194 0.050000
-0.777962 0.236655 0.050000
-0.775379 0.222541 0.050000
-0.773293 0.208516 0.050000
-0.771730 0.194602 0.050000
-0.770663 0.180606 0.050000
-0.770003 0.166497 0.050000
-0.769666 0.152242 0.050000
-0.769577 0.137843 0.050000
-0.769669 0.123305 0.050000
-0.769894 0.108654 0.050000
-0.770215 0.093904 0.050000
-0.770608 0.079085 0.050000
-0.771054 0.064203 0.050000
-0.771545 0.049291 0.050000
-0.772072 0.034339 0.050000
-0.772629 0.019384 0.050000
-0.773210 0.004405 0.050000
-0.773801 -0.010554 0.050000
-0.774397 -0.025506 0.050000
-0.774987 -0.040402 0.050000
-0.775580 -0.055222 0.050000
-0.776192 -0.069919 0.050000
-0.776866 -0.084443 0.050000
-0.777668 -0.098755 0.050000
-0.778691 -0.112808 0.050000
-0.780056 -0.126578 0.050000
-0.781897 -0.140077 0.050000
-0.784390 -0.153270 0.050000
-0.787624 -0.166447 0.050000
-0.791645 -0.179354 0.050000
-0.796599 -0.192622 0.050000
-0.802172 -0.206162 0.050000
-0.808353 -0.220330 0.050000
-0.814740 -0.235400 0.050000
-0.820940 -0.251389 0.050000
-0.826672 -0.268298 0.050000
-0.831632 -0.285978 0.050000
-0.835710 -0.304281 0.050000
-0.838731 -0.323115 0.050000
-0.840706 -0.342255 0.050000
-0.841455 -0.361748 0.050000
-0.841131 -0.381258 0.050000
-0.839313 -0.401072 0.050000
-0.836488 -0.420588 0.050000
-0.831387 -0.440497 0.050000
-0.825604 -0.459697 0.050000
-0.814877 -0.479073 0.050000
-0.804792 -0.497670 0.050000
-0.780372 -0.510277 0.050000
-0.767177 -0.528026 0.050000
-0.733871 -0.500000 0.050000
-0.717742 -0.500000 0.050000
-0.701613 -0.500000 0.050000
-0.685484 -0.500000 0.050000
-0.669355 -0.500000 0.050000
-0.653226 -0.500000 0.050000
-0.637097 -0.500000 0.050000
-0.620968 -0.500000 0.050000
-0.604839 -0.500000 0.050000
-0.588710 -0.500000 0.050000
-0.572581 -0.500000 0.050000
-0.556452 -0.500000 0.050000
-0.540323 -0.500000 0.050000
-0.524194 -0.500000 0.050000
-0.508065 -0.500000 0.050000
-0.491935 -0.500000 0.050000
-0.475807 -0.500000 0.050000
-0.459677 -0.500000 0.050000
-0.443548 -0.500000 0.050000
-0.427419 -0.500000 0.050000
-0.411290 -0.500000 0.050000
-0.395161 -0.500000 0.050000
-0.379032 -0.500000 0.050000
-0.362903 -0.500000 0.050000
-0.346774 -0.500000 0.050000
-0.330645 -0.500000 0.050000
-0.314516 -0.500000 0.050000
-0.298387 -0.500000 0.050000
-0.282258 -0.500000 0.050000
-0.266129 -0.500000 0.050000
-0.250000 -0.500000 0.050000
-0.233871 -0.500000 0.050000
-0.217742 -0.500000 0.050000
-0.201613 -0.500000 0.050000
-0.185484 -0.500000 0.050000
-0.169355 -0.500000 0.050000
-0.153226 -0.500000 0.050000
-0.137097 -0.500000 0.050000
-0.120968 -0.500000 0.050000
-0.104839 -0.500000 0.050000
-0.088710 -0.500000 0.050000
-0.072581 -0.500000 0.050000
-0.056452 -0.500000 0.050000
-0.040323 -0.500000 0.050000
-0.024194 -0.500000 0.050000
-0.008065 -0.500000 0.050000
0.008065 -0.500000 0.050000
0.024194 -0.500000 0.050000
0.040323 -0.500000 0.050000
0.056452 -0.500000 0.050000
0.072581 -0.500000 0.050000
0.088710 -0.500000 0.050000
0.104839 -0.500000 0.050000
0.120968 -0.500000 0.050000
0.137097 -0.500000 0.050000
0.153226 -0.500000 0.050000
0.169355 -0.500000 0.050000
0.185484 -0.500000 0.050000
0.201613 -0.500000 0.050000
0.217742 -0.500000 0.050000
0.233871 -0.500000 0.050000
0.250000 -0.500000 0.050000
0.266129 -0.500000 0.050000
0.282258 -0.500000 0.050000
0.298387 -0.500000 0.050000
0.314516 -0.500000 0.050000
0.330645 -0.500000 0.050000
0.346774 -0.500000 0.050000
0.362903 -0.500000 0.050000
0.379032 -0.500000 0.050000
0.395161 -0.500000 0.050000
0.411290 -0.500000 0.050000
0.427419 -0.500000 0.050000
0.443548 -0.500000 0.050000
0.459677 -0.500000 0.050000
0.475807 -0.500000 0.050000
0.491935 -0.500000 0.050000
0.508065 -0.500000 0.050000
0.524194 -0.500000 0.050000
0.540323 -0.500000 0.050000
0.556452 -0.500000 0.050000
0.572581 -0.500000 0.050000
0.588710 -0.500000 0.050000
0.604839 -0.500000 0.050000
0.620968 -0.500000 0.050000
0.637097 -0.500000 0.050000
0.653226 -0.500000 0.050000
0.669355 -0.500000 0.050000
0.685484 -0.500000 0.050000
0.701613 -0.500000 0.050000
0.717742 -0.500000 0.050000
0.733871 -0.500000 0.050000
0.768736 -0.497267 0.050000
0.780534 -0.498392 0.050000
0.791456 -0.486138 0.050000
0.801934 -0.471945 0.050000
0.808407 -0.455004 0.050000
0.814361 -0.437769 0.050000
0.818204 -0.420140 0.050000
0.821361 -0.402227 0.050000
0.823224 -0.384300 0.050000
0.824282 -0.366216 0.050000
0.824301 -0.348225 0.050000
0.823434 -0.330223 0.050000
0.821574 -0.312448 0.050000
0.818769 -0.294853 0.050000
0.814982 -0.277715 0.050000
0.810294 -0.261020 0.050000
0.804823 -0.245095 0.050000
0.798888 -0.229781 0.050000
0.792941 -0.215217 0.050000
0.787648 -0.201024 0.050000
0.783146 -0.186738 0.050000
0.779698 -0.172695 0.050000
0.777184 -0.158177 0.050000
0.775420 -0.143630 0.050000
0.774178 -0.128833 0.050000
0.773231 -0.113904 0.050000
0.772417 -0.098827 0.050000
0.771630 -0.083653 0.050000
0.770824 -0.068405 0.050000
0.769976 -0.053104 0.050000
0.769081 -0.037775 0.050000
0.768140 -0.022425 0.050000
0.767155 -0.007072 0.050000
0.766128 0.008279 0.050000
0.765061 0.023617 0.050000
0.763958 0.038931 0.050000
0.762819 0.054216 0.050000
0.761648 0.069457 0.050000
0.760449 0.084649 0.050000
0.759231 0.099768 0.050000
0.758007 0.114813 0.050000
0.756802 0.129750 0.050000
0.755658 0.144584 0.050000
0.754640 0.159276 0.050000
[...]
CELL_DATA 34596
SCALARS Mises_Stress_Abs(MPa) float 1
LOOKUP_TABLE default
101.179000
106.052000
76.020600
91.462600
98.284400
92.100700
99.223900
96.791800
66.080200
101.285000
25.949500
86.729000
47.830600
11.855400
4.090650
2.148370
1.680940
0.693717
37.431900
0.375064
4.424120
18.251700
55.619000
3.387540
2.614620
2.557000
1.316590
0.647229
55.165300
31.710600
49.077000
15.733900
21.701700
25.047300
38.865300
44.852700
35.192100
23.700400
37.906900
25.098200
39.924100
46.986200
53.180700
58.613600
27.427700
39.267200
2.855100
3.540740
2.430240
2.691890
1.272110
47.883200
55.302700
46.539800
36.836400
29.464100
49.268600
57.722900
49.843400
52.455400
52.468300
48.334000
51.137900
16.274100
46.305800
52.457600
16.392000
41.320300
33.582400
1.942300
3.220700
3.602300
3.478510
2.815790
47.712900
33.838400
56.952600
112.265000
36.747700
35.691900
121.886000
116.039000
36.986900
51.925900
129.705000
39.783400
33.159900
121.689000
123.730000
61.582200
122.268000
119.443000
3.357000
4.427570
3.408920
4.015040
3.811190
25.424500
30.114700
45.816800
40.338800
60.158100
67.963100
31.033300
29.118200
46.539100
26.887600
4.536140
5.069500
4.196240
4.334320
28.355800
22.360500
20.771800
9.288140
11.955400
39.729300
24.585300
33.051400
3.947760
42.044600
37.635900
46.982200
30.727600
43.493300
26.229900
19.263100
5.877480
4.706630
4.635360
5.379170
5.984330
21.879600
27.882600
31.932300
29.304800
19.585700
28.039600
24.779600
24.617000
21.047700
24.666300
5.836390
7.070700
6.446930
5.483190
5.505280
23.052500
24.313200
18.346400
26.635100
23.875900
13.070200
18.891500
25.163400
32.882100
21.414800
6.345130
8.841350
5.685480
6.903920
7.499260
13.047700
19.953000
21.258900
23.280400
16.745800
6.287420
7.935910
9.177370
9.137430
7.002170
8.770250
23.496100
26.056300
22.642100
8.919520
16.027900
18.113300
15.993100
24.581800
11.968400
9.303160
8.639400
8.448790
12.216100
6.805770
17.334700
23.492800
26.514500
22.287800
15.444000
16.832100
13.362800
14.993000
11.218300
17.754400
9.440190
10.540000
11.144700
7.304660
23.493300
11.722000
20.033100
25.031400
22.750300
27.508000
13.572100
12.233300
17.121200
10.156900
12.936700
7.789830
11.116400
11.906200
12.891700
26.212900
16.160700
31.478500
28.337100
36.407200
24.296500
10.794600
12.129000
12.565300
9.583520
10.656500
12.770100
15.822000
14.108100
13.492600
12.872900
33.316700
33.911200
26.778500
30.676100
10.800200
8.827650
41.287200
9.994560
8.327200
10.000100
27.687600
17.099800
12.550300
24.433200
18.470500
53.223400
31.105200
29.791800
50.369700
43.636600
8.075230
7.755630
7.237090
7.434500
8.932820
42.416800
18.915200
18.879900
19.793600
33.248200
54.132900
21.850300
36.106300
66.435400
38.415600
5.938880
7.274810
6.449590
5.935530
7.051740
46.135700
90.007100
26.779400
80.814100
91.581500
22.165800
26.094600
81.354200
82.612400
35.476800
31.179100
38.972100
96.151100
46.209400
91.702000
35.606400
51.621000
5.681510
4.858520
5.732010
5.836860
3.439910
25.994700
52.954500
46.481600
20.996100
29.021000
34.975900
44.555900
51.559000
50.656400
20.358100
39.737100
32.610900
33.972000
45.820200
47.610200
40.574400
44.422400
4.731340
2.523040
3.727650
4.482790
4.599290
25.589800
37.661600
24.531200
30.799100
21.549100
6.471330
36.999600
49.331600
10.197700
30.606800
29.541800
12.408100
50.628800
6.879160
21.484000
40.084100
12.519100
1.140500
2.725510
3.661510
3.614260
3.245120
31.904400
20.610000
28.335600
28.492400
33.527900
32.255200
38.134700
33.894100
33.518600
33.433000
15.221900
33.480400
38.425500
45.837200
43.431400
34.343200
42.227800
0.845425
3.298190
1.711080
2.278990
2.707730
11.381500
70.628000
21.457400
68.863500
53.212900
44.458500
30.211200
61.151000
74.595100
67.619900
75.197400
15.060700
58.259200
28.774900
47.128300
5.276220
67.772000
2.640260
1.881300
1.219140
2.888280
0.830640
0.095217
11.781200
19.770000
6.403730
6.835580
16.768600
12.094500
10.676600
6.018260
9.738860
5.804830
7.207770
4.791250
4.370720
8.464970
7.381150
4.105960
6.036510
3.917000
4.604770
4.421030
16.622700
17.920800
13.141600
15.971400
13.433400
13.958600
11.747700
13.937300
17.018100
9.477120
4.666200
11.564800
17.490700
6.273700
3.679120
4.876750
13.254200
8.985340
16.152500
15.574000
16.693800
7.989290
8.146070
4.939330
8.038910
5.107100
7.140810
5.402360
7.010370
6.465020
8.661090
9.371260
8.291860
2.099890
5.566120
4.058440
3.634380
5.578420
4.706560
4.476640
5.159470
3.621770
4.571990
8.556800
4.839980
5.567370
5.779260
6.381980
5.842020
9.775650
7.198160
6.778350
8.808720
7.032180
8.565240
8.294340
5.199150
2.787210
12.756400
10.017600
10.853300
11.090700
8.666550
11.436400
11.404000
12.390900
5.520620
14.114900
9.730670
11.847200
13.073500
6.773860
12.531900
9.594240
12.380700
9.955340
12.142300
10.770100
11.450700
8.401990
13.631700
11.434700
12.731300
10.348300
12.351300
10.008700
8.751100
3.649600
7.271870
9.594640
23.750400
24.082700
11.008300
14.468400
11.552200
17.970400
15.137300
20.408300
29.941700
28.118800
28.073500
21.444500
24.898300
20.735400
16.994300
18.093800
19.598800
27.423600
9.166740
10.639100
9.450020
12.539400
5.857960
5.750550
12.253300
15.930600
18.261800
20.847500
23.550600
7.003970
7.641260
0.003796
0.002054
16.681500
14.213000
12.111100
14.101100
13.260100
18.681000
5.394440
0.007133
0.013545
5.725630
17.471400
8.054600
0.003666
18.653700
0.006626
2.158920
3.067550
10.096300
6.596990
4.383980
0.012108
2.982740
10.432500
19.098600
7.890510
0.024469
9.564840
18.761900
4.276160
0.003945
7.276750
0.005720
2.979490
6.379840
2.240620
1.200690
18.497000
0.010517
9.120220
11.259600
0.021930
20.037700
8.932360
0.004059
2.820250
6.636550
7.222590
0.005176
2.215660
3.443170
0.010430
1.075170
11.244800
18.960100
0.021280
8.578240
0.003943
0.005361
19.558000
9.553930
8.165020
10.357200
4.398750
12.687200
14.200400
0.003891
0.020870
17.990200
0.010150
8.834430
3.051180
10.070800
9.006830
19.491700
7.144580
0.006617
0.004033
0.002591
17.914900
25.688200
24.158800
0.020591
16.583700
0.010077
8.916030
9.714140
3.311490
9.384740
18.168200
0.010229
0.002123
0.006331
0.009702
19.835700
26.322800
17.824600
0.020477
19.177700
31.531500
5.552930
8.446840
0.010020
6.995950
15.207600
16.771000
8.893400
12.704500
0.010032
0.007186
0.002899
11.529100
0.012518
0.020406
11.948900
23.007200
29.687900
0.003167
0.010006
12.013200
9.082220
5.971460
6.554640
14.636900
9.078030
28.749500
0.005537
0.012451
3.081570
11.754300
45.819000
31.335400
42.091200
0.020102
22.245000
10.737500
12.451000
0.009813
7.850230
4.023640
8.356190
8.777250
8.347000
12.288400
0.005911
28.827200
20.517400
20.594300
11.358200
19.521500
5.814460
10.370200
2.031940
0.020060
0.003841
10.172700
0.009456
3.817090
9.313100
15.634200
21.166300
15.254400
9.645700
15.332200
21.016300
21.200600
16.409200
7.929340
9.244850
3.395640
7.492220
1.940100
6.681670
3.813510
1.765780
8.401440
8.248150
0.004788
0.010190
10.500900
13.552500
20.851100
7.157510
14.328200
11.453900
20.927000
14.482100
15.114700
22.569300
16.752700
22.369100
24.474800
12.549700
2.807110
24.408000
22.843000
14.764700
22.733800
7.079090
23.281000
28.938500
12.345300
8.256430
25.628500
11.182400
22.430600
22.975400
26.201900
35.696900
8.596720
37.379000
16.176800
11.949200
11.402300
14.417000
9.140030
10.288800
2.429420
12.712700
10.828300
12.743700
10.696300
7.269460
8.108930
8.005270
11.793800
13.142300
16.368100
14.426200
11.794100
10.262900
11.128800
5.400720
7.172330
0.017984
3.280690
11.439100
9.520920
6.857380
25.382300
29.957600
32.872000
20.166500
28.955700
17.755800
20.478600
3.424010
12.927800
6.140640
13.791400
15.947800
8.534110
6.896260
10.074500
11.286000
10.315400
3.992880
5.104950
12.040100
4.921000
12.965300
3.343780
8.042110
13.390600
6.844360
8.855670
17.369600
23.327200
6.136500
14.610900
10.838300
11.340000
9.933990
17.741200
23.032800
22.552900
9.625450
7.553110
11.136800
12.110800
15.770900
10.906700
18.851100
14.099200
12.195500
9.297220
14.209700
9.644930
5.014480
11.355900
6.276170
12.293100
11.279100
15.383900
5.933390
8.032410
4.092380
7.461690
11.067400
5.603010
16.459300
6.194730
13.207800
13.620600
3.024130
10.221100
7.007380
4.605930
10.145900
7.195410
4.197110
6.685140
10.019300
9.458490
5.064950
6.095730
13.118300
7.574460
3.566570
6.162460
4.035110
7.369860
4.712970
7.878770
9.248850
5.857560
5.731640
2.966620
9.612610
4.104010
6.839500
9.305830
10.092400
5.867390
3.867030
4.319710
3.405700
6.638640
8.105980
4.591400
4.374220
5.250300
6.024050
6.564790
5.505800
7.236070
4.159290
4.731650
2.477960
3.591810
4.866140
2.381050
1.594730
5.688590
2.327080
2.663940
2.817920
2.439190
0.928140
3.088640
5.638350
4.045690
3.898540
3.002140
2.122710
1.588970
4.083650
6.988430
2.228570
5.727790
6.030760
5.852210
3.630350
1.397050
1.186940
2.519510
3.619430
1.497080
6.473480
9.063720
22.709800
2.613190
3.914030
2.881520
6.180680
7.839910
12.572200
6.614710
15.002300
10.804200
0.009535
7.391800
0.007308
0.010648
20.700700
24.549900
12.037400
13.839700
15.671600
0.008397
0.010914
6.108890
0.009615
9.727190
11.689500
9.679070
20.958800
14.399300
7.089670
0.011398
5.259720
0.010035
0.009831
12.077300
10.221000
9.481990
17.448200
2.005120
2.568200
0.011843
6.101040
4.196790
0.010213
0.012064
14.525800
8.193560
8.347670
10.433200
0.010651
0.012983
4.138120
0.014261
3.679350
11.342300
7.398460
8.966140
7.146060
2.813320
3.488890
0.011265
0.016703
0.013996
9.593960
5.717120
6.500320
6.913160
0.020068
0.011678
0.015335
5.275060
6.330350
6.161960
4.968870
0.023171
0.016296
1.431680
2.279890
0.012165
3.598440
4.585620
4.270800
6.414010
2.717190
4.456920
2.921080
3.283130
1.593400
3.005240
3.619160
6.771290
34.818200
22.812400
18.687100
43.128800
27.740400
11.257700
0.011166
0.006332
19.997700
11.865800
40.204800
20.056400
23.411200
35.754100
0.006254
15.094500
10.113700
0.009922
27.978500
18.291900
19.882300
32.822200
14.663800
8.378830
14.452400
0.006511
0.010582
0.009629
26.606200
18.947600
29.166800
15.473500
10.941000
14.979900
29.274800
29.765600
31.081200
19.816300
31.076000
32.054100
24.890300
26.609100
33.052200
34.982600
40.538600
35.105700
40.984500
38.549100
36.765900
43.072200
38.363600
39.747600
33.483500
36.792700
6.573980
38.411100
40.473300
23.940700
15.314800
9.354560
42.183600
44.344200
31.950600
18.448200
19.531300
14.974100
16.122300
16.948600
17.520900
17.862600
17.032900
16.638300
16.212500
15.251700
17.903600
21.778400
19.939900
23.461100
21.513600
22.052100
18.813100
18.950100
20.819500
19.761500
20.723100
21.680200
25.058800
29.234800
9.867890
25.388000
26.712500
20.262400
27.551600
20.427600
43.042400
15.923100
41.318700
38.539300
43.030200
21.741600
19.797100
3.138840
3.759780
4.083340
3.431850
8.178680
4.408460
5.741270
2.658500
2.226140
13.055300
3.646490
2.833180
3.135870
4.190530
3.886950
2.436070
3.437160
2.143920
4.480150
6.862310
4.455510
8.701770
27.952600
17.218900
22.475300
29.470300
31.727200
33.262100
15.011500
22.770000
10.841400
6.282420
14.971000
16.208300
14.147600
13.195700
14.518600
15.878900
14.964700
15.614400
15.433500
15.656100
16.162900
16.594300
17.983800
15.826100
11.920100
17.140500
17.386500
17.937700
18.467800
6.486980
16.584900
37.408200
34.091700
33.737900
20.424500
31.118700
26.551700
28.429600
21.434900
27.220200
14.953000
10.705500
28.844700
31.693600
30.708500
31.614900
32.773500
29.826700
33.903700
30.293800
32.781500
33.772800
35.723800
36.415000
35.096200
34.581400
35.217300
39.417500
21.049400
38.416400
17.276100
37.840000
32.462300
33.011500
43.638700
34.297300
50.575800
44.882800
47.220100
42.045100
48.730800
49.253800
51.038600
52.456400
46.898300
44.995000
52.814000
54.348400
53.638200
61.797100
62.622000
56.084900
57.548700
53.888700
31.242400
23.175800
52.547800
34.090600
48.212500
23.038600
32.354000
0.005188
16.249600
0.008705
24.228500
54.520900
16.404600
31.965300
50.668600
0.007942
27.217900
0.013887
19.627400
27.313700
20.029400
47.344400
50.305700
32.633700
12.987100
19.314600
0.006653
0.011926
0.008625
0.013010
0.011383
0.010448
0.010239
0.017824
0.011545
0.032118
0.015192
0.453123
1.341800
0.790519
0.028191
0.821051
14.087100
18.510300
12.009800
8.556390
7.104240
4.287380
3.202830
1.449220
0.814800
0.746039
0.571234
0.291684
0.180924
0.072248
0.036688
0.198736
0.131173
0.081009
0.085183
0.041801
0.029520
0.230212
0.156882
0.082525
0.053747
0.044442
0.032407
0.146406
0.132099
0.099840
0.070327
0.052884
0.045721
0.168368
0.143694
0.111220
0.084048
0.066941
0.058239
0.137282
0.136939
0.118700
0.094598
0.077522
0.068913
0.141165
0.137016
0.121416
0.100980
0.085202
0.076738
0.129396
0.132519
0.122129
0.104234
0.089720
0.081786
0.128277
0.129627
0.120702
0.105027
0.091608
0.084130
0.121787
0.124988
0.117960
0.103681
0.091079
0.083961
0.118175
0.120151
0.113596
0.100384
0.088288
0.081370
0.111471
0.113603
0.107622
0.095050
0.083249
0.076395
0.104388
0.105536
0.099611
0.087588
0.075906
0.069013
0.094086
0.094966
0.089344
0.077832
0.066258
0.059246
0.081545
0.081834
0.076552
0.065859
0.054423
0.047251
0.065771
0.066145
0.061757
0.052216
0.041107
0.033641
0.049790
0.050390
0.047027
0.039088
0.028594
0.020625
0.042123
0.043001
0.039752
0.033025
0.024282
0.017615
0.052378
0.053019
0.048038
0.040246
0.033376
0.029121
0.072374
0.072336
0.064809
0.054614
0.047656
0.043823
0.090890
0.090801
0.081348
0.069009
0.061115
0.057174
0.102453
0.103912
0.094145
0.080043
0.071764
0.067673
0.109430
0.111296
0.101357
0.087123
0.078791
0.074875
0.109515
0.112488
0.103517
0.090059
0.082370
0.078811
0.104186
0.108646
0.101562
0.089580
0.082935
0.079918
0.096355
0.101680
0.096560
0.086681
0.081186
0.078818
0.087026
0.093174
0.090033
0.082187
0.077961
0.076191
0.077855
0.084485
0.083017
0.077073
0.073925
0.072720
0.069597
0.076527
0.076400
0.071962
0.069719
0.068950
0.062922
0.069918
0.070684
0.067369
0.065758
0.065314
0.057896
0.064852
0.066176
0.063548
0.062335
0.062089
0.054522
0.061349
0.062917
0.060622
0.059581
0.059430
0.052540
0.059219
0.060806
0.058564
0.057528
0.057391
0.051562
0.058152
0.059664
0.057270
0.056134
0.055958
0.051377
0.057916
0.059257
0.056623
0.055322
0.055084
0.051644
0.058262
0.059456
0.056501
0.055024
0.054711
0.052396
0.059140
0.060148
0.056847
0.055177
0.054789
0.053574
0.060532
0.061329
0.057618
0.055744
0.055270
0.055302
0.062499
0.063007
0.058802
0.056688
0.056113
0.057682
0.065119
0.065204
0.060380
0.057968
0.057262
0.060795
0.068438
0.067924
0.062308
0.059519
0.058639
0.064711
0.072466
0.071111
0.064506
0.061232
0.060128
0.069370
0.077108
0.074637
0.066813
0.062950
0.061557
0.074620
0.082129
0.078233
0.069000
0.064426
0.062693
0.080019
0.087073
0.081494
0.070689
0.065364
0.063225
0.084940
0.091214
0.083769
0.071475
0.065338
0.062796
0.088181
0.093575
0.084390
0.070718
0.063959
0.060989
0.089039
0.093067
0.082279
0.068006
0.060766
0.057427
0.085588
0.088466
0.077008
0.062879
0.055478
0.051812
0.076837
0.079168
0.068198
0.055288
0.048129
0.044031
0.065019
0.066211
0.056305
0.046317
0.039257
0.034337
0.049796
0.050991
0.044219
0.038169
0.030833
0.023571
0.038036
0.039672
0.037743
0.035887
0.026629
0.014440
0.040998
0.041699
0.042598
0.041766
0.029962
0.014002
0.052260
0.052193
0.053445
0.051683
0.037719
0.021358
0.065531
0.064602
0.065171
0.061411
0.045280
0.028740
0.071137
0.070190
0.070835
0.067857
0.050357
0.033290
0.076059
0.074063
0.074878
0.070719
0.051072
0.034141
0.062607
0.060816
0.063833
0.066182
0.046785
0.030915
0.063809
0.056107
0.059395
0.056913
0.035410
0.025204
0.076477
0.079248
0.074388
0.049779
0.034361
0.020480
0.350126
0.341533
0.341704
0.216186
0.074661
0.028338
1.007690
0.712193
0.312521
0.158715
0.072880
0.035897
0.342029
0.229744
0.107286
0.088005
0.048138
0.031572
0.047638
0.058273
0.064411
0.053438
0.042062
0.037318
0.075594
0.086762
0.070426
0.054054
0.046691
0.042798
0.082671
0.097352
0.085763
0.064883
0.052504
0.046949
0.097101
0.106001
0.094164
0.073367
0.058281
0.050406
0.094273
0.106838
0.098571
0.078687
0.062549
0.053557
0.098323
0.107096
0.099742
0.081468
0.065331
0.055894
0.104897
0.099189
0.082226
0.066484
0.057051
0.095436
0.102566
0.097132
0.081356
0.066070
0.056745
0.092211
0.098920
0.093962
0.079008
0.064117
0.054893
0.090331
0.094915
0.089639
0.075350
0.060747
0.051566
0.086646
0.089956
0.084376
0.070561
0.056239
0.047086
0.084254
0.085012
0.078416
0.065088
0.051147
0.042126
0.082600
0.080729
0.072760
0.059796
0.046543
0.037975
0.085253
0.079641
0.069022
0.056202
0.044045
0.036426
0.093280
0.084009
0.069763
0.056230
0.045102
0.038767
0.105771
0.093962
0.075748
0.059912
0.049379
0.043812
0.117381
0.104606
0.083343
0.065385
0.054546
0.049316
0.114732
0.106386
0.087433
0.068955
0.058525
0.053686
0.108519
0.104686
0.088760
0.070619
0.061133
0.056593
0.101979
0.101893
0.088213
0.071626
0.062692
0.058616
0.093634
0.098217
0.087763
0.072010
0.064021
0.060245
0.087937
0.094976
0.086854
0.072356
0.065048
0.061721
0.084976
0.091931
0.084920
0.072206
0.065668
0.062806
0.080904
0.087638
0.082030
0.071074
0.065597
0.063212
0.075717
0.082097
0.077966
0.069090
0.064629
0.062805
0.069379
0.075726
0.073240
0.066340
0.062945
0.061625
0.063051
0.069446
0.068385
0.063273
0.060776
0.059908
0.057291
0.063850
0.064016
0.060243
0.058462
0.057928
0.052888
0.059530
0.060471
0.057597
0.056264
0.055956
0.049998
0.056621
0.057940
0.055501
0.054381
0.054185
0.048431
0.054978
0.056391
0.054000
0.052905
0.052729
0.047927
0.054351
0.055596
0.053053
0.051845
0.051639
0.047814
0.054265
0.055390
0.052538
0.051181
0.050912
0.048128
0.054639
0.055562
0.052402
0.050863
0.050533
0.048584
0.055323
0.056113
0.052583
0.050872
0.050472
0.049441
0.056422
0.057022
0.053080
0.051169
0.050696
0.050737
0.058016
0.058329
0.053873
0.051728
0.051163
0.052596
0.060165
0.060059
0.054938
0.052499
0.051815
0.055072
0.062922
0.062193
0.056227
0.053412
0.052572
0.058129
0.066247
0.064682
0.057651
0.054373
0.053330
0.061681
0.070048
0.067402
0.059094
0.055253
0.053962
0.065508
0.074116
0.070178
0.060384
0.055917
0.054331
0.069411
0.078184
0.072739
0.061370
0.056213
0.054313
0.073099
0.081906
0.074850
0.061854
0.056066
0.053810
0.076781
0.085073
0.076190
0.061863
0.055392
0.052812
0.080488
0.087605
0.076951
0.061281
0.054281
0.051334
0.085957
0.090032
0.076774
0.060314
0.052810
0.049393
0.092679
0.092054
0.075820
0.059251
0.050899
0.046938
0.096623
0.092238
0.074604
0.057646
0.048605
0.043656
0.098913
0.090726
0.071745
0.056027
0.045525
0.039206
0.097285
0.085997
0.067397
0.053960
0.041983
0.033158
0.084743
0.074907
0.061929
0.052254
0.038461
0.025690
0.071100
0.064547
0.058535
0.052825
0.036471
0.017784
0.057209
0.055651
0.057468
0.055456
0.037146
0.012473
0.046230
0.049946
0.058680
0.059552
0.040176
0.015265
0.032556
0.042513
0.058536
0.064251
0.044936
0.024113
0.040943
0.046900
0.063081
0.070703
0.051079
0.034186
0.090493
0.094102
0.093993
0.087723
0.059351
0.040558
0.240226
0.236265
0.226349
0.150549
0.069381
0.037850
0.407811
0.393843
0.390291
0.264095
0.083647
0.032189
0.905750
0.687270
0.338071
0.155980
0.074484
0.042162
0.535255
0.367397
0.178261
0.109042
0.070517
0.042647
0.250710
0.186791
0.127786
0.089993
0.064209
0.052437
0.075824
0.111642
0.102144
0.075830
0.061746
0.054899
0.053310
0.098804
0.092332
0.071338
0.058460
0.052061
0.053171
0.093101
0.090307
0.069909
0.054913
0.046950
0.061485
0.091618
0.089057
0.069268
0.052067
0.041783
0.064585
0.089756
0.087782
0.068521
0.049880
0.037682
0.068708
0.088226
0.086018
0.067538
0.048219
0.034755
0.069986
0.086384
0.084025
0.066261
0.046833
0.032766
0.072660
0.084968
0.081892
0.064849
0.045694
0.031571
0.074647
0.083886
0.079962
0.063541
0.045030
0.031425
0.079233
0.084190
0.078627
0.062816
0.045359
0.032924
0.085895
0.086566
0.078737
0.063331
0.047361
0.036656
0.097500
0.092726
0.081194
0.065843
0.051484
0.042648
0.113974
0.103587
0.087169
0.070780
0.057551
0.050201
0.134930
0.119331
0.096519
0.077410
0.064494
0.057778
0.156607
0.137290
0.107748
0.084517
0.070327
0.063732
0.170029
0.151352
0.118090
0.089083
0.073446
0.066533
0.157954
0.143689
0.113476
0.086193
0.072159
0.065703
0.138163
0.129856
0.104133
0.080166
0.067816
0.062305
0.111914
0.113357
0.095337
0.072903
0.062874
0.057945
0.094579
0.100807
0.087168
0.067468
0.058502