# vtk DataFile Version 2.0
test
ASCII
DATASET UNSTRUCTURED_GRID
POINTS 41454 float
0.750000 -0.500000 0.050000
0.750000 0.410000 0.050000
0.752901 -0.537510 0.050000
0.775559 -0.522789 0.050000
0.802043 -0.511954 0.050000
0.816872 -0.493818 0.050000
0.829481 -0.474963 0.050000
0.837527 -0.455657 0.050000
0.844143 -0.435952 0.050000
0.848588 -0.416345 0.050000
0.851777 -0.396546 0.050000
0.853503 -0.376878 0.050000
0.854042 -0.357191 0.050000
0.853328 -0.337722 0.050000
0.851449 -0.318440 0.050000
0.848411 -0.299585 0.050000
0.844287 -0.281213 0.050000
0.839221 -0.263621 0.050000
0.833425 -0.246864 0.050000
0.827309 -0.231224 0.050000
0.821370 -0.216503 0.050000
0.815902 -0.202467 0.050000
0.811420 -0.189007 0.050000
0.807674 -0.175311 0.050000
0.804820 -0.161870 0.050000
0.802696 -0.147948 0.050000
0.801047 -0.133820 0.050000
0.799732 -0.119348 0.050000
0.798578 -0.104627 0.050000
0.797494 -0.089701 0.050000
0.796413 -0.074630 0.050000
0.795310 -0.059475 0.050000
0.794170 -0.044261 0.050000
0.792990 -0.029026 0.050000
0.791771 -0.013781 0.050000
0.790515 0.001453 0.050000
0.789224 0.016667 0.050000
0.787902 0.031845 0.050000
0.786555 0.046973 0.050000
0.785188 0.062038 0.050000
0.783814 0.077015 0.050000
0.782446 0.091891 0.050000
0.781113 0.106623 0.050000
0.779845 0.121197 0.050000
0.778702 0.135553 0.050000
0.777761 0.149680 0.050000
0.777111 0.163537 0.050000
0.776918 0.177092 0.050000
0.777256 0.190474 0.050000
0.778340 0.203502 0.050000
0.780270 0.216619 0.050000
0.783002 0.229760 0.050000
0.786521 0.243187 0.050000
0.790720 0.257289 0.050000
0.795264 0.272333 0.050000
0.799349 0.288789 0.050000
0.802426 0.306349 0.050000
0.803551 0.325037 0.050000
0.802889 0.343873 0.050000
0.798946 0.363180 0.050000
0.793436 0.381162 0.050000
0.781388 0.398020 0.050000
0.772944 0.411924 0.050000
-0.750000 0.410000 0.050000
0.733871 0.410000 0.050000
0.717742 0.410000 0.050000
0.701613 0.410000 0.050000
0.685484 0.410000 0.050000
0.669355 0.410000 0.050000
0.653226 0.410000 0.050000
0.637097 0.410000 0.050000
0.620968 0.410000 0.050000
0.604839 0.410000 0.050000
0.588710 0.410000 0.050000
0.572581 0.410000 0.050000
0.556452 0.410000 0.050000
0.540323 0.410000 0.050000
0.524194 0.410000 0.050000
0.508065 0.410000 0.050000
0.491935 0.410000 0.050000
0.475807 0.410000 0.050000
0.459677 0.410000 0.050000
0.443548 0.410000 0.050000
0.427419 0.410000 0.050000
0.411290 0.410000 0.050000
0.395161 0.410000 0.050000
0.379032 0.410000 0.050000
0.362903 0.410000 0.050000
0.346774 0.410000 0.050000
0.330645 0.410000 0.050000
0.314516 0.410000 0.050000
0.298387 0.410000 0.050000
0.282258 0.410000 0.050000
0.266129 0.410000 0.050000
0.250000 0.410000 0.050000
0.233871 0.410000 0.050000
0.217742 0.410000 0.050000
0.201613 0.410000 0.050000
0.185484 0.410000 0.050000
0.169355 0.410000 0.050000
0.153226 0.410000 0.050000
0.137097 0.410000 0.050000
0.120968 0.410000 0.050000
0.104839 0.410000 0.050000
0.088710 0.410000 0.050000
0.072581 0.410000 0.050000
0.056452 0.410000 0.050000
0.040323 0.410000 0.050000
0.024194 0.410000 0.050000
0.008065 0.410000 0.050000
-0.008065 0.410000 0.050000
-0.024194 0.410000 0.050000
-0.040323 0.410000 0.050000
-0.056452 0.410000 0.050000
-0.072581 0.410000 0.050000
-0.088710 0.410000 0.050000
-0.104839 0.410000 0.050000
-0.120968 0.410000 0.050000
-0.137097 0.410000 0.050000
-0.153226 0.410000 0.050000
-0.169355 0.410000 0.050000
-0.185484 0.410000 0.050000
-0.201613 0.410000 0.050000
-0.217742 0.410000 0.050000
-0.233871 0.410000 0.050000
-0.250000 0.410000 0.050000
-0.266129 0.410000 0.050000
-0.282258 0.410000 0.050000
-0.298387 0.410000 0.050000
-0.314516 0.410000 0.050000
-0.330645 0.410000 0.050000
-0.346774 0.410000 0.050000
-0.362903 0.410000 0.050000
-0.379032 0.410000 0.050000
-0.395161 0.410000 0.050000
-0.411290 0.410000 0.050000
-0.427419 0.410000 0.050000
-0.443548 0.410000 0.050000
-0.459677 0.410000 0.050000
-0.475807 0.410000 0.050000
-0.491935 0.410000 0.050000
-0.508065 0.410000 0.050000
-0.524194 0.410000 0.050000
-0.540323 0.410000 0.050000
-0.556452 0.410000 0.050000
-0.572581 0.410000 0.050000
-0.588710 0.410000 0.050000
-0.604839 0.410000 0.050000
-0.620968 0.410000 0.050000
-0.637097 0.410000 0.050000
-0.653226 0.410000 0.050000
-0.669355 0.410000 0.050000
-0.685484 0.410000 0.050000
-0.701613 0.410000 0.050000
-0.717742 0.410000 0.050000
-0.733871 0.410000 0.050000
-0.750000 -0.500000 0.050000
-0.771539 0.408679 0.050000
-0.779735 0.394991 0.050000
-0.790803 0.377960 0.050000
-0.796254 0.360048 0.050000
-0.800226 0.340795 0.050000
-0.801260 0.322001 0.050000
-0.800672 0.303197 0.050000
-0.798360 0.285474 0.050000
-0.795101 0.268442 0.050000
-0.791254 0.252712 0.050000
-0.787480 0.237729 0.050000
-0.783913 0.223435 0.050000
-0.780909 0.209638 0.050000
-0.778465 0.195958 0.050000
-0.776612 0.182402 0.050000
-0.775333 0.168784 0.050000
-0.774540 0.155035 0.050000
-0.774130 0.141129 0.050000
-0.774021 0.127055 0.050000
-0.774131 0.112823 0.050000
-0.774406 0.098455 0.050000
-0.774797 0.083969 0.050000
-0.775276 0.069398 0.050000
-0.775821 0.054749 0.050000
-0.776419 0.040061 0.050000
-0.777061 0.025323 0.050000
-0.777738 0.010576 0.050000
-0.778444 -0.004200 0.050000
-0.779164 -0.018960 0.050000
-0.779891 -0.033712 0.050000
-0.780614 -0.048409 0.050000
-0.781341 -0.063022 0.050000
-0.782089 -0.077502 0.050000
-0.782907 -0.091788 0.050000
-0.783871 -0.105837 0.050000
-0.785089 -0.119594 0.050000
-0.786700 -0.133033 0.050000
-0.788863 -0.146163 0.050000
-0.791779 -0.158954 0.050000
-0.795535 -0.171745 0.050000
-0.800157 -0.184196 0.050000
-0.805851 -0.197082 0.050000
-0.812229 -0.210266 0.050000
-0.819353 -0.224169 0.050000
-0.826745 -0.239162 0.050000
-0.833933 -0.255288 0.050000
-0.840564 -0.272543 0.050000
-0.846289 -0.290756 0.050000
-0.850940 -0.309775 0.050000
-0.854316 -0.329450 0.050000
-0.856377 -0.349576 0.050000
-0.856933 -0.370098 0.050000
-0.856067 -0.390753 0.050000
-0.853374 -0.411634 0.050000
-0.849191 -0.432336 0.050000
-0.842343 -0.453113 0.050000
-0.833950 -0.473355 0.050000
-0.820329 -0.492859 0.050000
-0.804667 -0.511542 0.050000
-0.777487 -0.521955 0.050000
-0.753727 -0.537765 0.050000
-0.733871 -0.500000 0.050000
-0.717742 -0.500000 0.050000
-0.701613 -0.500000 0.050000
-0.685484 -0.500000 0.050000
-0.669355 -0.500000 0.050000
-0.653226 -0.500000 0.050000
-0.637097 -0.500000 0.050000
-0.620968 -0.500000 0.050000
-0.604839 -0.500000 0.050000
-0.588710 -0.500000 0.050000
-0.572581 -0.500000 0.050000
-0.556452 -0.500000 0.050000
-0.540323 -0.500000 0.050000
-0.524194 -0.500000 0.050000
-0.508065 -0.500000 0.050000
-0.491935 -0.500000 0.050000
-0.475807 -0.500000 0.050000
-0.459677 -0.500000 0.050000
-0.443548 -0.500000 0.050000
-0.427419 -0.500000 0.050000
-0.411290 -0.500000 0.050000
-0.395161 -0.500000 0.050000
-0.379032 -0.500000 0.050000
-0.362903 -0.500000 0.050000
-0.346774 -0.500000 0.050000
-0.330645 -0.500000 0.050000
-0.314516 -0.500000 0.050000
-0.298387 -0.500000 0.050000
-0.282258 -0.500000 0.050000
-0.266129 -0.500000 0.050000
-0.250000 -0.500000 0.050000
-0.233871 -0.500000 0.050000
-0.217742 -0.500000 0.050000
-0.201613 -0.500000 0.050000
-0.185484 -0.500000 0.050000
-0.169355 -0.500000 0.050000
-0.153226 -0.500000 0.050000
-0.137097 -0.500000 0.050000
-0.120968 -0.500000 0.050000
-0.104839 -0.500000 0.050000
-0.088710 -0.500000 0.050000
-0.072581 -0.500000 0.050000
-0.056452 -0.500000 0.050000
-0.040323 -0.500000 0.050000
-0.024194 -0.500000 0.050000
-0.008065 -0.500000 0.050000
0.008065 -0.500000 0.050000
0.024194 -0.500000 0.050000
0.040323 -0.500000 0.050000
0.056452 -0.500000 0.050000
0.072581 -0.500000 0.050000
0.088710 -0.500000 0.050000
0.104839 -0.500000 0.050000
0.120968 -0.500000 0.050000
0.137097 -0.500000 0.050000
0.153226 -0.500000 0.050000
0.169355 -0.500000 0.050000
0.185484 -0.500000 0.050000
0.201613 -0.500000 0.050000
0.217742 -0.500000 0.050000
0.233871 -0.500000 0.050000
0.250000 -0.500000 0.050000
0.266129 -0.500000 0.050000
0.282258 -0.500000 0.050000
0.298387 -0.500000 0.050000
0.314516 -0.500000 0.050000
0.330645 -0.500000 0.050000
0.346774 -0.500000 0.050000
0.362903 -0.500000 0.050000
0.379032 -0.500000 0.050000
0.395161 -0.500000 0.050000
0.411290 -0.500000 0.050000
0.427419 -0.500000 0.050000
0.443548 -0.500000 0.050000
0.459677 -0.500000 0.050000
0.475807 -0.500000 0.050000
0.491935 -0.500000 0.050000
0.508065 -0.500000 0.050000
0.524194 -0.500000 0.050000
0.540323 -0.500000 0.050000
0.556452 -0.500000 0.050000
0.572581 -0.500000 0.050000
0.588710 -0.500000 0.050000
0.604839 -0.500000 0.050000
0.620968 -0.500000 0.050000
0.637097 -0.500000 0.050000
0.653226 -0.500000 0.050000
0.669355 -0.500000 0.050000
0.685484 -0.500000 0.050000
0.701613 -0.500000 0.050000
0.717742 -0.500000 0.050000
0.733871 -0.500000 0.050000
0.771008 -0.510567 0.050000
0.780407 -0.511046 0.050000
0.795476 -0.499712 0.050000
0.808643 -0.485605 0.050000
0.818013 -0.468262 0.050000
0.825853 -0.450527 0.050000
0.831350 -0.432076 0.050000
0.835662 -0.413420 0.050000
0.838421 -0.394633 0.050000
0.840059 -0.375757 0.050000
0.840423 -0.356952 0.050000
0.839656 -0.338214 0.050000
0.837684 -0.319742 0.050000
0.834562 -0.301566 0.050000
0.830276 -0.283945 0.050000
0.824931 -0.266936 0.050000
0.818679 -0.250850 0.050000
0.811868 -0.235574 0.050000
0.805036 -0.221200 0.050000
0.798977 -0.207286 0.050000
0.793796 -0.193210 0.050000
0.789807 -0.179473 0.050000
0.786884 -0.165111 0.050000
0.784829 -0.150733 0.050000
0.783378 -0.136071 0.050000
0.782266 -0.121258 0.050000
0.781297 -0.106288 0.050000
0.780346 -0.091209 0.050000
0.779361 -0.076059 0.050000
0.778316 -0.060853 0.050000
0.777210 -0.045626 0.050000
0.776046 -0.030381 0.050000
0.774826 -0.015141 0.050000
0.773556 0.000091 0.050000
0.772239 0.015301 0.050000
0.770877 0.030479 0.050000
0.769474 0.045617 0.050000
0.768034 0.060699 0.050000
0.766562 0.075718 0.050000
0.765070 0.090650 0.050000
0.763572 0.105491 0.050000
0.762104 0.120205 0.050000
0.760713 0.134802 0.050000
0.759481 0.149240 0.050000
[...]
CELL_DATA 34596
SCALARS Mises_Stress_Abs(MPa) float 1
LOOKUP_TABLE default
126.098000
131.434000
95.167700
114.322000
122.040000
114.958000
122.773000
120.375000
81.498100
125.191000
31.966900
107.002000
58.845400
14.642600
5.066860
2.723180
2.103940
0.857860
46.946600
0.472389
5.541450
22.888200
69.661200
4.206790
3.284970
3.155800
1.647920
0.798056
69.018700
39.756000
61.482500
19.739400
27.093700
30.935100
48.441300
55.997000
43.868700
29.469300
46.843300
30.868500
49.399400
58.142500
65.742900
72.443200
33.993700
48.543900
3.596590
4.384180
3.011350
3.385480
1.564770
59.961800
69.130600
57.975600
46.194900
36.953300
61.298100
71.500400
61.949300
64.906300
64.901800
60.412500
63.709700
20.176100
57.515700
65.117900
20.299400
51.092400
41.361200
2.419050
3.981810
4.478990
4.360230
3.522570
59.549700
42.320800
71.074500
140.296000
46.123800
44.743700
152.144000
144.516000
45.778200
64.337200
160.698000
49.094900
40.927500
151.499000
153.689000
76.266500
151.307000
148.312000
4.156610
5.468780
4.256210
4.997320
4.768670
31.718000
37.721200
57.223600
50.654800
75.605400
83.698500
38.264900
35.984300
57.522400
33.275700
5.640610
6.288350
5.233030
5.415050
35.477800
27.974200
26.052100
11.782800
15.093200
49.926600
30.773900
41.269100
4.934370
52.759100
47.601000
57.698400
37.924000
53.576400
32.421200
23.799500
7.301940
5.871400
5.800900
6.702100
7.399090
27.574300
35.113700
39.957600
36.671700
24.945600
34.336900
30.393000
30.344000
26.003000
30.414900
7.275640
8.783630
8.052800
6.813030
6.882660
29.069300
30.400700
23.428900
33.334800
29.951700
16.031900
23.301800
31.038000
40.319300
26.281500
7.936020
11.003900
7.091950
8.607280
9.287860
16.082400
24.443600
26.194200
28.495200
20.601300
7.818410
9.897210
11.454300
11.360700
8.754330
10.969500
29.400500
32.593400
28.286500
11.071600
19.638000
22.325600
19.701000
30.099600
14.667100
11.538300
10.776800
10.559500
15.218500
8.496360
21.238000
29.317500
33.187500
27.876900
19.104600
20.723600
16.415300
18.340500
13.806900
21.708700
11.796800
13.150000
13.862900
9.088010
29.379000
14.625100
24.846800
31.180000
28.003700
34.425300
16.722200
14.968900
20.926000
12.439400
15.911500
9.729780
13.867000
14.866600
16.004100
32.783100
20.143300
39.133600
35.314200
45.043000
30.436600
13.183700
14.803800
15.455300
11.782900
13.066100
15.860800
19.739400
17.599800
16.837800
15.993900
41.459900
42.227900
33.481800
38.405200
13.168300
10.780400
51.167500
12.315600
10.192800
12.272300
34.496500
21.227000
15.585600
30.452200
22.959900
66.091400
38.854100
37.027900
62.782100
54.547700
9.873170
9.528620
8.804990
9.068750
10.970500
52.803100
23.457100
23.443700
24.566900
41.340000
67.266900
27.174000
44.874600
82.914300
47.989100
7.219890
8.896740
7.893980
7.224690
8.699210
57.362600
111.944000
33.252100
100.511000
113.939000
27.520800
32.392500
101.185000
102.798000
44.087600
38.732000
48.414400
119.718000
57.623700
114.283000
44.276700
64.180800
6.915090
5.927840
7.045890
7.145740
4.151150
32.264100
65.936800
57.863100
26.128600
36.056400
43.473500
55.446100
64.171500
63.155600
25.451200
49.384800
40.531900
42.188700
56.953800
59.190900
50.436000
55.251500
5.752100
3.060870
4.512190
5.493130
5.704330
31.826000
46.822900
30.475400
38.311700
26.795200
8.053020
45.998500
61.328000
12.748500
38.001800
36.742900
15.558700
62.980800
8.649400
26.624000
49.851000
15.640600
1.368050
3.320620
4.427690
4.470660
3.953990
39.643500
25.690800
35.235000
35.406300
41.653000
40.071200
47.395200
42.100600
41.677700
41.616600
18.924300
41.621600
47.804800
57.008700
54.024100
42.714400
52.521600
1.042410
4.043870
2.051290
2.762950
3.472090
14.114100
87.822800
26.658900
85.565500
66.099100
55.243500
37.498100
75.984000
92.813200
84.030000
93.484200
18.735500
72.544600
35.852000
58.696800
6.558050
84.348700
3.280840
2.367090
1.579610
3.685540
1.041020
0.133076
14.294000
24.078900
8.188490
8.199010
20.477500
14.927500
13.263600
7.475580
11.935600
7.198960
8.995340
6.118010
5.422730
10.410200
9.402990
5.022830
7.445930
4.647710
5.534580
5.283990
20.257800
21.836200
16.287000
19.477200
16.437600
17.207800
14.388100
17.020000
20.758600
11.613800
5.668890
14.190700
21.736900
7.600940
4.649300
6.201580
16.315400
10.993900
20.020900
19.359200
20.645400
10.121900
10.241200
6.247350
10.196200
6.715690
8.694450
6.621240
8.434820
7.785680
10.433500
11.319900
10.081100
2.460440
6.701690
5.141240
4.532280
6.667790
5.670080
5.375040
6.244550
4.574770
5.549840
10.672400
6.029670
6.929440
7.221530
7.994700
7.361060
12.180900
8.991010
8.440580
10.930300
8.750990
10.691100
10.364600
6.309300
3.586100
15.507000
12.251200
13.188900
13.581100
10.633000
13.977900
13.911800
15.102700
6.788490
17.335400
11.929200
14.458400
16.003000
8.444130
15.398900
11.743700
15.124200
12.377500
15.051200
13.340700
14.223200
10.408100
17.023900
14.215200
15.852900
12.858500
15.371100
12.411000
10.708000
4.521230
9.088900
11.807500
29.072900
29.449200
13.708300
17.760700
14.240500
22.108700
18.677400
25.033700
37.193300
34.928000
34.282600
26.464700
30.839500
25.522500
20.882000
22.199000
24.036900
33.473600
11.284800
13.101100
11.684100
15.384400
7.119170
7.064780
15.065500
19.665400
22.554500
25.782500
29.176600
8.837830
9.502340
0.004610
0.002486
20.250400
17.382300
14.725000
17.530700
16.282200
23.126300
6.697300
0.008839
0.016764
6.951440
21.562600
9.824900
0.004480
22.690200
0.008031
2.426110
3.812240
12.533500
8.360370
5.149180
0.015004
3.640550
13.039600
23.582700
9.656980
0.030312
11.681900
22.873400
5.297500
0.004907
9.186030
0.006970
3.778130
7.685640
3.008010
1.597250
22.748600
0.013011
11.233900
13.949600
0.027163
24.483100
10.897200
0.005081
3.573500
8.327930
9.187340
0.006333
2.655690
4.220970
0.012884
1.407990
13.983700
23.366100
0.026322
10.489500
0.004942
0.006609
23.920600
11.678100
10.205200
12.803100
5.479320
15.800300
17.777100
0.004837
0.025799
22.057500
0.012528
10.877900
3.862520
12.442500
10.992000
23.888400
8.654980
0.008218
0.005040
0.003214
22.076400
31.882300
30.007300
0.025442
20.376700
0.012431
10.917200
12.048000
4.158570
11.471300
22.285600
0.012676
0.002644
0.007863
0.012039
24.041900
32.497700
22.034800
0.025289
23.783400
39.096600
6.932070
10.394800
0.012355
8.609150
18.567800
20.601800
10.872100
15.758900
0.012501
0.008956
0.003599
14.310700
0.015553
0.025192
14.784600
28.552000
36.791900
0.003907
0.012328
14.678700
11.152000
7.414200
8.129310
18.015800
11.092000
35.552700
0.006907
0.015525
3.928730
14.272400
56.667500
38.753400
52.076700
0.024799
27.561000
13.025000
15.490800
0.012084
9.645400
4.994940
10.387400
11.030800
10.238900
15.118700
0.007363
35.654200
25.281700
25.452100
14.181100
24.158100
6.981790
12.831500
2.595330
0.024687
0.004744
12.589200
0.011612
4.734240
11.544300
19.360300
26.161800
19.060800
11.737000
19.166400
26.004800
26.298600
20.261200
10.043700
11.585900
4.042920
9.283940
2.392360
8.294190
4.503050
2.256380
10.310500
10.133800
0.005869
0.012514
12.920900
16.709200
25.767300
8.955260
17.772800
13.939800
26.091600
17.621900
18.722600
28.108300
20.751200
27.664500
30.260100
15.593500
3.485600
30.204900
28.274700
18.147800
28.194100
8.676020
28.791600
35.768600
15.154100
10.196700
31.635900
13.445600
27.623000
28.525500
32.133000
44.246200
10.636900
46.105500
20.022400
14.791900
14.098600
17.852200
11.309300
12.713200
3.065660
15.732600
13.393900
15.827500
13.252300
8.848610
9.939550
10.002500
14.611900
16.291300
20.327100
18.226100
14.957900
12.467500
13.669900
6.597030
9.206150
0.024120
4.023300
14.111600
11.740500
8.483910
30.830100
36.772200
40.530500
24.964000
35.519500
21.796200
24.945900
4.231820
16.028000
7.591050
16.996200
19.598600
10.937500
8.930520
12.464000
14.264300
12.941900
4.739740
6.057000
15.453200
6.311260
16.106300
3.969490
10.083600
16.407500
8.120780
11.433500
22.379500
29.066700
7.287400
18.012600
12.834200
14.456800
12.681700
22.786100
28.441300
28.064800
12.030500
8.959770
13.156300
15.413400
20.291700
13.326300
24.217300
18.264800
15.299700
11.929900
18.074200
11.334700
5.914840
13.408200
7.404990
14.588800
13.569600
19.723700
7.035790
10.328200
5.341270
9.660910
14.233100
6.810950
20.462200
7.904190
16.339900
17.130000
3.592220
12.065700
8.279710
5.407450
12.591300
9.001050
5.135220
8.725680
12.450500
12.179800
6.427460
7.794460
16.369400
9.490120
4.162390
7.270870
4.771280
8.781680
5.931030
10.252700
11.896100
7.599580
6.980910
3.629570
11.934800
4.865940
8.702320
11.581400
12.675000
6.959560
4.829180
5.053230
4.040720
8.492880
10.469500
6.009400
5.624440
6.602460
7.109690
8.528470
7.039930
9.130360
4.959470
5.660850
2.960330
4.228380
5.804740
2.916700
1.968430
7.210390
3.106060
3.410870
3.661660
3.000190
1.101830
3.871640
7.133920
5.366390
5.131920
3.708030
2.566670
1.838200
5.224190
8.913720
2.682210
7.086820
7.255550
7.348530
4.328180
1.756350
1.449990
2.898390
4.215210
1.728580
7.560100
10.665800
28.314000
3.337520
5.229790
3.809530
8.284440
10.328600
16.595800
8.562210
19.569200
12.863300
0.011647
8.841350
0.008521
0.012963
26.221800
30.771100
15.067400
17.505500
19.568500
0.009691
0.013264
7.297350
0.011761
11.578600
14.798900
12.143300
26.249400
18.011600
8.413340
0.013858
6.265550
0.011602
0.012057
15.103700
12.965200
11.907700
21.885000
2.357660
3.050910
0.013671
7.227680
4.994720
0.012620
0.014687
18.187700
10.322500
10.607300
13.067300
0.013259
0.015900
4.893460
0.016647
4.367100
14.221700
9.422370
11.236600
9.005480
3.332250
4.109500
0.014270
0.019522
0.017225
11.991600
7.287010
8.244000
8.660330
0.023899
0.015012
0.019190
6.777030
7.910360
7.752130
6.273570
0.027661
0.020547
1.667630
2.698980
0.016203
4.459350
5.921220
5.434840
8.012790
3.514070
5.686100
3.622720
4.266090
2.039030
3.809440
4.706660
8.529900
43.853700
28.731800
23.289400
53.918400
34.558200
13.513300
0.013721
0.007704
23.960900
14.807100
50.267400
25.237900
29.205800
45.046600
0.007509
18.026600
12.136000
0.012159
35.324700
23.082100
24.794800
41.093700
18.308300
10.035500
17.268100
0.007690
0.012917
0.011777
33.609800
23.668400
36.507100
19.527500
13.686900
17.880600
35.360300
35.823300
37.555100
23.785800
37.679000
38.893000
29.837500
32.032900
40.228600
42.734900
50.073800
42.930700
50.738100
47.470500
45.072400
53.361900
47.190500
49.052500
40.791400
45.155800
8.365700
47.764900
50.347600
29.785400
19.157300
11.610500
52.391900
55.200800
39.888300
22.239100
23.683600
18.069100
19.418000
20.364800
21.167200
21.792200
20.705000
20.214200
19.620000
18.450700
21.854400
27.060200
24.514400
29.149700
26.641500
27.433900
23.054200
23.210000
25.689800
24.302800
25.564900
26.822800
31.213200
36.465400
12.132400
31.585500
33.178200
25.497400
34.290400
24.682000
52.098500
19.233100
49.868200
46.694400
52.237400
26.317300
24.036900
4.056130
4.822370
5.205210
4.426920
10.039800
5.576970
7.026700
3.469760
2.947030
15.805400
4.706990
3.689330
4.068490
5.419380
5.022310
3.189900
4.436310
2.811370
5.808490
8.619360
5.768000
10.787800
34.790000
21.365200
27.973700
36.692000
39.468300
41.584600
18.195100
27.583600
13.291100
7.810100
18.373200
19.976000
17.285800
16.057600
17.782200
19.538500
18.326100
19.144000
18.975700
19.231500
19.942000
20.485500
22.274400
19.493000
14.710300
21.197000
21.537000
22.226100
22.983300
8.119360
20.497200
46.603700
42.540000
42.088900
25.350500
38.693400
32.099900
34.539600
25.820900
33.067300
18.146000
12.967000
35.133400
38.785800
37.486200
38.699900
40.207700
36.319900
41.697800
36.991100
40.225000
41.538500
44.243300
45.002900
43.270900
42.628800
43.509400
49.051900
26.226800
47.662800
21.664400
46.861600
40.407100
41.084300
54.405800
42.773300
62.077600
54.675500
57.680300
51.079400
59.648200
60.326500
62.675300
64.560800
57.246000
54.771700
65.455900
67.063600
66.190700
76.773100
77.949700
69.370800
71.332400
66.649600
38.951500
28.785800
64.690200
42.492500
60.107900
28.577700
38.910900
0.006357
19.664000
0.010695
30.097800
68.330500
20.317500
39.781600
63.252600
0.009764
32.681100
0.017091
23.632100
34.028100
24.843900
59.502300
62.813500
40.854500
15.620100
23.130200
0.008148
0.014696
0.010641
0.015992
0.014002
0.012838
0.012412
0.023714
0.016032
0.040543
0.019980
0.587729
1.595410
0.938628
0.034894
0.976281
17.920400
23.456700
15.273100
10.944100
9.072120
5.508070
4.116780
1.843190
1.055900
0.829379
0.728269
0.396450
0.254191
0.111187
0.049060
0.369852
0.280403
0.161957
0.109358
0.063461
0.041431
0.335468
0.260910
0.144933
0.083158
0.066859
0.047460
0.237254
0.201361
0.147533
0.103045
0.074730
0.064543
0.230889
0.195233
0.149944
0.114171
0.091629
0.079785
0.193686
0.181603
0.154929
0.124782
0.103238
0.092828
0.190314
0.177774
0.155477
0.130879
0.112147
0.102131
0.175081
0.171118
0.155441
0.134007
0.117065
0.108058
0.170362
0.166139
0.152796
0.134340
0.119028
0.110633
0.161385
0.159936
0.149087
0.132278
0.118044
0.110201
0.155086
0.153207
0.143329
0.127929
0.114413
0.106854
0.146082
0.144869
0.135846
0.121195
0.108093
0.100685
0.136347
0.134600
0.125918
0.111965
0.099067
0.091671
0.123384
0.121647
0.113413
0.100011
0.087272
0.079822
0.107626
0.105590
0.097881
0.085360
0.072803
0.065282
0.088118
0.086398
0.079728
0.068380
0.056201
0.048554
0.066980
0.065902
0.060522
0.050829
0.039190
0.031207
0.051727
0.051878
0.047202
0.038742
0.028159
0.020237
0.056655
0.057718
0.051848
0.042358
0.033779
0.028301
0.076817
0.077761
0.069592
0.057731
0.049479
0.044868
0.097959
0.098976
0.088861
0.074660
0.065491
0.060883
0.111977
0.114922
0.104467
0.088161
0.078565
0.073817
0.121520
0.124799
0.113912
0.097243
0.087521
0.082978
0.123171
0.127563
0.117497
0.101535
0.092474
0.088322
0.118183
0.124293
0.116205
0.101774
0.093860
0.090316
0.110018
0.117091
0.111164
0.099079
0.092456
0.089655
0.099885
0.107849
0.104132
0.094400
0.089236
0.087124
0.089696
0.098202
0.096408
0.088893
0.084987
0.083530
0.080468
0.089308
0.089068
0.083329
0.080475
0.079526
0.073034
0.081943
0.082744
0.078326
0.076207
0.075635
0.067492
0.076351
0.077807
0.074195
0.072534
0.072188
0.063852
0.072558
0.074302
0.071082
0.069614
0.069375
0.061786
0.070329
0.072111
0.068955
0.067486
0.067260
0.060865
0.069313
0.071022
0.067691
0.066103
0.065830
0.060840
0.069246
0.070769
0.067159
0.065378
0.065032
0.061342
0.069853
0.071210
0.067221
0.065234
0.064800
0.062419
0.071092
0.072226
0.067819
0.065602
0.065079
0.064014
0.072947
0.073816
0.068903
0.066440
0.065814
0.066272
0.075491
0.075993
0.070462
0.067705
0.066954
0.069307
0.078811
0.078775
0.072469
0.069344
0.068432
0.073202
0.082947
0.082157
0.074862
0.071275
0.070151
0.078011
0.087886
0.086054
0.077535
0.073359
0.071964
0.083633
0.093480
0.090283
0.080278
0.075398
0.073659
0.089820
0.099401
0.094496
0.082797
0.077088
0.074951
0.096002
0.105049
0.098163
0.084632
0.078066
0.075465
0.101350
0.109523
0.100507
0.085284
0.077826
0.074779
0.104526
0.111665
0.100690
0.084006
0.075922
0.072406
0.104685
0.110219
0.097521
0.080363
0.071825
0.067921
0.099559
0.103873
0.090615
0.073847
0.065246
0.060994
0.088553
0.092201
0.079598
0.064493
0.056261
0.051516
0.074466
0.076685
0.065251
0.053664
0.045540
0.039807
0.056948
0.058991
0.050989
0.044063
0.035550
0.026938
0.045204
0.047040
0.044197
0.041963
0.031056
0.016605
0.051652
0.051705
0.051493
0.049883
0.035937
0.017808
0.066340
0.065209
0.065088
0.062252
0.045853
0.027446
0.083633
0.081314
0.080053
0.074271
0.055268
0.036665
0.090555
0.088276
0.086925
0.082108
0.061665
0.042419
0.099805
0.096261
0.094378
0.086174
0.062786
0.043691
0.082728
0.080099
0.080400
0.080028
0.057835
0.039846
0.092205
0.083435
0.084354
0.069672
0.043815
0.032655
0.067435
0.072437
0.070197
0.044674
0.039469
0.027139
0.445775
0.431390
0.425145
0.261750
0.098471
0.037038
1.206450
0.887932
0.424340
0.228605
0.101992
0.048537
0.297136
0.233332
0.110305
0.101445
0.058644
0.042085
0.074045
0.073540
0.066529
0.058432
0.050119
0.046800
0.127248
0.110464
0.083030
0.066166
0.058374
0.054050
0.134359
0.127443
0.107077
0.082501
0.067867
0.061574
0.141748
0.136852
0.118294
0.094403
0.077031
0.068164
0.137730
0.138734
0.124649
0.101600
0.083405
0.073715
0.137712
0.138364
0.126231
0.105347
0.087538
0.077518
0.135845
0.125840
0.106403
0.089226
0.079396
0.130575
0.132367
0.123239
0.105296
0.088771
0.079127
0.125696
0.127721
0.119302
0.102244
0.086225
0.076767
0.121398
0.122135
0.113741
0.097470
0.081794
0.072413
0.115646
0.115500
0.106917
0.091112
0.075709
0.066372
0.110429
0.108307
0.098931
0.083626
0.068527
0.059274
0.105898
0.101503
0.090877
0.075888
0.061310
0.052347
0.105356
0.097652
0.084510
0.069608
0.055855
0.047533
0.111441
0.100223
0.083267
0.067367
0.054374
0.047073
0.124504
0.110688
0.089076
0.070215
0.057513
0.050831
0.138223
0.123434
0.098050
0.076071
0.062606
0.056161
0.132362
0.123143
0.101195
0.079116
0.066454
0.060577
0.124201
0.120138
0.101707
0.080195
0.068833
0.063424
0.116070
0.116225
0.100404
0.080731
0.070128
0.065331
0.105406
0.111378
0.099472
0.080794
0.071359
0.066942
0.098098
0.107480
0.098464
0.081156
0.072510
0.068637
0.094921
0.104384
0.096607
0.081265
0.073476
0.070135
0.091143
0.100153
0.093773
0.080424
0.073833
0.071025
0.085920
0.094389
0.089609
0.078638
0.073214
0.071047
0.079175
0.087505
0.084580
0.075940
0.071749
0.070166
0.072285
0.080620
0.079342
0.072815
0.069675
0.068616
0.065995
0.074486
0.074634
0.069688
0.067381
0.066710
0.061281
0.069832
0.070862
0.066971
0.065178
0.064766
0.058280
0.066785
0.068251
0.064857
0.063302
0.063015
0.056780
0.065176
0.066743
0.063402
0.061866
0.061598
0.056428
0.064687
0.066074
0.062554
0.060882
0.060576
0.056502
0.064799
0.066057
0.062177
0.060330
0.059950
0.057050
0.065433
0.066462
0.062218
0.060158
0.059706
0.057777
0.066435
0.067301
0.062607
0.060341
0.059807
0.058986
0.067933
0.068555
0.063349
0.060841
0.060218
0.060716
0.070018
0.070270
0.064417
0.061620
0.060885
0.063102
0.072752
0.072466
0.065777
0.062617
0.061737
0.066181
0.076176
0.075110
0.067363
0.063744
0.062674
0.069888
0.080221
0.078125
0.069061
0.064881
0.063569
0.074072
0.084743
0.081348
0.070722
0.065876
0.064273
0.078454
0.089466
0.084544
0.072144
0.066572
0.064629
0.082766
0.094054
0.087406
0.073155
0.066807
0.064510
0.086771
0.098133
0.089653
0.073564
0.066523
0.063830
0.090795
0.101564
0.091035
0.073451
0.065655
0.062610
0.095320
0.104455
0.091776
0.072705
0.064349
0.060884
0.102194
0.107382
0.091487
0.071615
0.062685
0.058663
0.110064
0.109762
0.090426
0.070463
0.060513
0.055849
0.114622
0.109988
0.089018
0.068654
0.057872
0.052016
0.118033
0.108762
0.085953
0.066847
0.054217
0.046725
0.117411
0.104079
0.081084
0.064419
0.049924
0.039442
0.101954
0.090005
0.073767
0.062039
0.045584
0.030460
0.086324
0.077932
0.069762
0.062681
0.043252
0.021228
0.072244
0.068637
0.068773
0.065892
0.044189
0.015419
0.062295
0.063532
0.070712
0.070652
0.047697
0.018572
0.046534
0.053484
0.069143
0.075434
0.052868
0.028355
0.050207
0.054434
0.072941
0.081536
0.059271
0.039976
0.086037
0.092032
0.097765
0.096802
0.068821
0.048269
0.272434
0.269661
0.264354
0.174196
0.082203
0.047352
0.525849
0.505107
0.494879
0.326468
0.111002
0.041056
1.138180
0.868381
0.457518
0.222142
0.103106
0.055832
0.593991
0.420930
0.195412
0.126134
0.087363
0.054284
0.218036
0.163246
0.128426
0.100381
0.072569
0.062135
0.070700
0.102985
0.103583
0.080028
0.068595
0.062868
0.078629
0.103713
0.098818
0.078747
0.066130
0.060119
0.089025
0.109241
0.103367
0.081226
0.064959
0.056695
0.095777
0.112108
0.105893
0.083902
0.064900
0.054058
0.099116
0.113017
0.106989
0.085254
0.064964
0.052537
0.100984
0.112229
0.106282
0.085503
0.064809
0.051549
0.101477
0.110813
0.104752
0.084704
0.064128
0.050622
0.102201
0.108974
0.102463
0.083207
0.062971
0.049509
0.102905
0.107319
0.099987
0.081294
0.061610
0.048471
0.105535
0.106590
0.097745
0.079577
0.060688
0.048225
0.110696
0.107902
0.096765
0.078871
0.061130
0.049799
0.120976
0.113149
0.098221
0.080246
0.063840
0.053965
0.137639
0.124089
0.103870
0.084642
0.069242
0.060722
0.160628
0.141653
0.114145
0.091752
0.076490
0.068558
0.186019
0.163283
0.127959
0.100301
0.083242
0.075265
0.206407
0.184135
0.143241
0.107088
0.087208
0.078496
0.186041
0.170157
0.134711
0.102113
0.085017
0.077174
0.161502
0.152170
0.122195
0.093866