# vtk DataFile Version 2.0
test
ASCII
DATASET UNSTRUCTURED_GRID
POINTS 41454 float
0.750000 -0.500000 0.050000
0.750000 0.495000 0.050000
0.753019 -0.484627 0.050000
0.753983 -0.469183 0.050000
0.754760 -0.453059 0.050000
0.755201 -0.437046 0.050000
0.755566 -0.420902 0.050000
0.755822 -0.404776 0.050000
0.756021 -0.388602 0.050000
0.756154 -0.372430 0.050000
0.756235 -0.356231 0.050000
0.756260 -0.340031 0.050000
0.756231 -0.323813 0.050000
0.756146 -0.307597 0.050000
0.756000 -0.291369 0.050000
0.755791 -0.275152 0.050000
0.755518 -0.258939 0.050000
0.755180 -0.242757 0.050000
0.754797 -0.226613 0.050000
0.754379 -0.210515 0.050000
0.753970 -0.194486 0.050000
0.753586 -0.178485 0.050000
0.753261 -0.162543 0.050000
0.752999 -0.146586 0.050000
0.752796 -0.130651 0.050000
0.752647 -0.114678 0.050000
0.752533 -0.098700 0.050000
0.752446 -0.082690 0.050000
0.752373 -0.066669 0.050000
0.752310 -0.050628 0.050000
0.752251 -0.034579 0.050000
0.752194 -0.018520 0.050000
0.752136 -0.002456 0.050000
0.752078 0.013613 0.050000
0.752018 0.029684 0.050000
0.751958 0.045756 0.050000
0.751896 0.061829 0.050000
0.751832 0.077902 0.050000
0.751767 0.093972 0.050000
0.751701 0.110041 0.050000
0.751634 0.126105 0.050000
0.751567 0.142166 0.050000
0.751501 0.158217 0.050000
0.751437 0.174262 0.050000
0.751379 0.190291 0.050000
0.751330 0.206310 0.050000
0.751298 0.222304 0.050000
0.751287 0.238286 0.050000
0.751313 0.254234 0.050000
0.751380 0.270180 0.050000
0.751509 0.286090 0.050000
0.751700 0.302032 0.050000
0.751953 0.317966 0.050000
0.752254 0.333977 0.050000
0.752559 0.350027 0.050000
0.752838 0.366162 0.050000
0.753038 0.382346 0.050000
0.753135 0.398574 0.050000
0.753108 0.414815 0.050000
0.752924 0.431059 0.050000
0.752606 0.447242 0.050000
0.752027 0.463414 0.050000
0.751427 0.479260 0.050000
-0.750000 0.495000 0.050000
0.733871 0.495000 0.050000
0.717742 0.495000 0.050000
0.701613 0.495000 0.050000
0.685484 0.495000 0.050000
0.669355 0.495000 0.050000
0.653226 0.495000 0.050000
0.637097 0.495000 0.050000
0.620968 0.495000 0.050000
0.604839 0.495000 0.050000
0.588710 0.495000 0.050000
0.572581 0.495000 0.050000
0.556452 0.495000 0.050000
0.540323 0.495000 0.050000
0.524194 0.495000 0.050000
0.508065 0.495000 0.050000
0.491935 0.495000 0.050000
0.475807 0.495000 0.050000
0.459677 0.495000 0.050000
0.443548 0.495000 0.050000
0.427419 0.495000 0.050000
0.411290 0.495000 0.050000
0.395161 0.495000 0.050000
0.379032 0.495000 0.050000
0.362903 0.495000 0.050000
0.346774 0.495000 0.050000
0.330645 0.495000 0.050000
0.314516 0.495000 0.050000
0.298387 0.495000 0.050000
0.282258 0.495000 0.050000
0.266129 0.495000 0.050000
0.250000 0.495000 0.050000
0.233871 0.495000 0.050000
0.217742 0.495000 0.050000
0.201613 0.495000 0.050000
0.185484 0.495000 0.050000
0.169355 0.495000 0.050000
0.153226 0.495000 0.050000
0.137097 0.495000 0.050000
0.120968 0.495000 0.050000
0.104839 0.495000 0.050000
0.088710 0.495000 0.050000
0.072581 0.495000 0.050000
0.056452 0.495000 0.050000
0.040323 0.495000 0.050000
0.024194 0.495000 0.050000
0.008065 0.495000 0.050000
-0.008065 0.495000 0.050000
-0.024194 0.495000 0.050000
-0.040323 0.495000 0.050000
-0.056452 0.495000 0.050000
-0.072581 0.495000 0.050000
-0.088710 0.495000 0.050000
-0.104839 0.495000 0.050000
-0.120968 0.495000 0.050000
-0.137097 0.495000 0.050000
-0.153226 0.495000 0.050000
-0.169355 0.495000 0.050000
-0.185484 0.495000 0.050000
-0.201613 0.495000 0.050000
-0.217742 0.495000 0.050000
-0.233871 0.495000 0.050000
-0.250000 0.495000 0.050000
-0.266129 0.495000 0.050000
-0.282258 0.495000 0.050000
-0.298387 0.495000 0.050000
-0.314516 0.495000 0.050000
-0.330645 0.495000 0.050000
-0.346774 0.495000 0.050000
-0.362903 0.495000 0.050000
-0.379032 0.495000 0.050000
-0.395161 0.495000 0.050000
-0.411290 0.495000 0.050000
-0.427419 0.495000 0.050000
-0.443548 0.495000 0.050000
-0.459677 0.495000 0.050000
-0.475807 0.495000 0.050000
-0.491935 0.495000 0.050000
-0.508065 0.495000 0.050000
-0.524194 0.495000 0.050000
-0.540323 0.495000 0.050000
-0.556452 0.495000 0.050000
-0.572581 0.495000 0.050000
-0.588710 0.495000 0.050000
-0.604839 0.495000 0.050000
-0.620968 0.495000 0.050000
-0.637097 0.495000 0.050000
-0.653226 0.495000 0.050000
-0.669355 0.495000 0.050000
-0.685484 0.495000 0.050000
-0.701613 0.495000 0.050000
-0.717742 0.495000 0.050000
-0.733871 0.495000 0.050000
-0.750000 -0.500000 0.050000
-0.751235 0.479199 0.050000
-0.751785 0.463317 0.050000
-0.752320 0.447124 0.050000
-0.752626 0.430933 0.050000
-0.752813 0.414671 0.050000
-0.752859 0.398428 0.050000
-0.752805 0.382188 0.050000
-0.752656 0.365986 0.050000
-0.752451 0.349834 0.050000
-0.752206 0.333725 0.050000
-0.751963 0.317683 0.050000
-0.751737 0.301660 0.050000
-0.751549 0.285686 0.050000
-0.751403 0.269702 0.050000
-0.751297 0.253738 0.050000
-0.751228 0.237749 0.050000
-0.751185 0.221763 0.050000
-0.751165 0.205755 0.050000
-0.751159 0.189743 0.050000
-0.751165 0.173716 0.050000
-0.751178 0.157685 0.050000
-0.751198 0.141646 0.050000
-0.751222 0.125605 0.050000
-0.751249 0.109558 0.050000
-0.751280 0.093512 0.050000
-0.751314 0.077462 0.050000
-0.751351 0.061414 0.050000
-0.751389 0.045364 0.050000
-0.751428 0.029317 0.050000
-0.751467 0.013270 0.050000
-0.751506 -0.002769 0.050000
-0.751546 -0.018804 0.050000
-0.751588 -0.034825 0.050000
-0.751636 -0.050835 0.050000
-0.751697 -0.066822 0.050000
-0.751773 -0.082796 0.050000
-0.751881 -0.098738 0.050000
-0.752023 -0.114670 0.050000
-0.752219 -0.130565 0.050000
-0.752475 -0.146471 0.050000
-0.752801 -0.162352 0.050000
-0.753196 -0.178280 0.050000
-0.753644 -0.194221 0.050000
-0.754133 -0.210234 0.050000
-0.754622 -0.226294 0.050000
-0.755095 -0.242418 0.050000
-0.755520 -0.258591 0.050000
-0.755886 -0.274797 0.050000
-0.756183 -0.291031 0.050000
-0.756409 -0.307272 0.050000
-0.756566 -0.323523 0.050000
-0.756652 -0.339770 0.050000
-0.756674 -0.356012 0.050000
-0.756625 -0.372249 0.050000
-0.756511 -0.388467 0.050000
-0.756315 -0.404683 0.050000
-0.756049 -0.420854 0.050000
-0.755651 -0.437042 0.050000
-0.755161 -0.453093 0.050000
-0.754296 -0.469257 0.050000
-0.753226 -0.484684 0.050000
-0.733871 -0.500000 0.050000
-0.717742 -0.500000 0.050000
-0.701613 -0.500000 0.050000
-0.685484 -0.500000 0.050000
-0.669355 -0.500000 0.050000
-0.653226 -0.500000 0.050000
-0.637097 -0.500000 0.050000
-0.620968 -0.500000 0.050000
-0.604839 -0.500000 0.050000
-0.588710 -0.500000 0.050000
-0.572581 -0.500000 0.050000
-0.556452 -0.500000 0.050000
-0.540323 -0.500000 0.050000
-0.524194 -0.500000 0.050000
-0.508065 -0.500000 0.050000
-0.491935 -0.500000 0.050000
-0.475807 -0.500000 0.050000
-0.459677 -0.500000 0.050000
-0.443548 -0.500000 0.050000
-0.427419 -0.500000 0.050000
-0.411290 -0.500000 0.050000
-0.395161 -0.500000 0.050000
-0.379032 -0.500000 0.050000
-0.362903 -0.500000 0.050000
-0.346774 -0.500000 0.050000
-0.330645 -0.500000 0.050000
-0.314516 -0.500000 0.050000
-0.298387 -0.500000 0.050000
-0.282258 -0.500000 0.050000
-0.266129 -0.500000 0.050000
-0.250000 -0.500000 0.050000
-0.233871 -0.500000 0.050000
-0.217742 -0.500000 0.050000
-0.201613 -0.500000 0.050000
-0.185484 -0.500000 0.050000
-0.169355 -0.500000 0.050000
-0.153226 -0.500000 0.050000
-0.137097 -0.500000 0.050000
-0.120968 -0.500000 0.050000
-0.104839 -0.500000 0.050000
-0.088710 -0.500000 0.050000
-0.072581 -0.500000 0.050000
-0.056452 -0.500000 0.050000
-0.040323 -0.500000 0.050000
-0.024194 -0.500000 0.050000
-0.008065 -0.500000 0.050000
0.008065 -0.500000 0.050000
0.024194 -0.500000 0.050000
0.040323 -0.500000 0.050000
0.056452 -0.500000 0.050000
0.072581 -0.500000 0.050000
0.088710 -0.500000 0.050000
0.104839 -0.500000 0.050000
0.120968 -0.500000 0.050000
0.137097 -0.500000 0.050000
0.153226 -0.500000 0.050000
0.169355 -0.500000 0.050000
0.185484 -0.500000 0.050000
0.201613 -0.500000 0.050000
0.217742 -0.500000 0.050000
0.233871 -0.500000 0.050000
0.250000 -0.500000 0.050000
0.266129 -0.500000 0.050000
0.282258 -0.500000 0.050000
0.298387 -0.500000 0.050000
0.314516 -0.500000 0.050000
0.330645 -0.500000 0.050000
0.346774 -0.500000 0.050000
0.362903 -0.500000 0.050000
0.379032 -0.500000 0.050000
0.395161 -0.500000 0.050000
0.411290 -0.500000 0.050000
0.427419 -0.500000 0.050000
0.443548 -0.500000 0.050000
0.459677 -0.500000 0.050000
0.475807 -0.500000 0.050000
0.491935 -0.500000 0.050000
0.508065 -0.500000 0.050000
0.524194 -0.500000 0.050000
0.540323 -0.500000 0.050000
0.556452 -0.500000 0.050000
0.572581 -0.500000 0.050000
0.588710 -0.500000 0.050000
0.604839 -0.500000 0.050000
0.620968 -0.500000 0.050000
0.637097 -0.500000 0.050000
0.653226 -0.500000 0.050000
0.669355 -0.500000 0.050000
0.685484 -0.500000 0.050000
0.701613 -0.500000 0.050000
0.717742 -0.500000 0.050000
0.733871 -0.500000 0.050000
0.735959 -0.483824 0.050000
0.737673 -0.468272 0.050000
0.738449 -0.452568 0.050000
0.739016 -0.436600 0.050000
0.739397 -0.420604 0.050000
0.739694 -0.404526 0.050000
0.739905 -0.388435 0.050000
0.740058 -0.372308 0.050000
0.740149 -0.356174 0.050000
0.740186 -0.340019 0.050000
0.740165 -0.323862 0.050000
0.740084 -0.307690 0.050000
0.739941 -0.291524 0.050000
0.739729 -0.275348 0.050000
0.739442 -0.259189 0.050000
0.739084 -0.243038 0.050000
0.738657 -0.226918 0.050000
0.738199 -0.210840 0.050000
0.737734 -0.194789 0.050000
0.737318 -0.178796 0.050000
0.736970 -0.162795 0.050000
0.736704 -0.146832 0.050000
0.736515 -0.130834 0.050000
0.736379 -0.114846 0.050000
0.736286 -0.098826 0.050000
0.736213 -0.082802 0.050000
0.736156 -0.066759 0.050000
0.736103 -0.050711 0.050000
0.736052 -0.034652 0.050000
0.736000 -0.018590 0.050000
0.735947 -0.002522 0.050000
0.735891 0.013548 0.050000
0.735834 0.029621 0.050000
0.735774 0.045694 0.050000
0.735712 0.061768 0.050000
0.735647 0.077841 0.050000
0.735581 0.093913 0.050000
0.735512 0.109982 0.050000
0.735441 0.126050 0.050000
0.735369 0.142113 0.050000
0.735295 0.158172 0.050000
0.735223 0.174222 0.050000
0.735153 0.190266 0.050000
0.735091 0.206295 0.050000
[...]
CELL_DATA 34596
SCALARS Mises_Stress_Abs(MPa) float 1
LOOKUP_TABLE default
5.601460
5.984690
4.143290
5.012560
5.509810
5.072410
5.628210
5.398380
3.790910
5.766740
1.499040
4.966550
2.764190
0.679099
0.216059
0.105075
0.088957
0.038798
2.026480
0.022988
0.240966
0.988895
3.026550
0.168413
0.135225
0.136085
0.071844
0.035944
3.013600
1.720060
2.668860
0.851355
1.198380
1.432740
2.152070
2.469580
1.949730
1.326410
2.162170
1.454860
2.267000
2.666320
3.026690
3.337490
1.531640
2.230380
0.140054
0.187681
0.129716
0.136590
0.069673
2.608060
3.030400
2.581040
1.996320
1.596700
2.743140
3.263170
2.783970
2.973770
2.974600
2.648780
2.833380
0.921542
2.593200
2.943230
0.930989
2.342260
1.941990
0.105618
0.189406
0.192585
0.172451
0.143180
2.627670
1.851040
3.136180
6.153920
1.985990
1.937520
6.707740
6.437400
2.096430
2.927150
7.324300
2.279090
1.888900
6.757930
6.926700
3.484270
6.927150
6.691940
0.177884
0.238125
0.180804
0.222711
0.190945
1.402320
1.638880
2.514330
2.177270
3.233020
3.915130
1.789490
1.658300
2.651880
1.524020
0.236228
0.289429
0.215378
0.233052
1.546530
1.220290
1.124660
0.490160
0.635834
2.139230
1.341000
1.815140
0.208567
2.270350
1.979050
2.727220
1.757100
2.501110
1.497540
1.101930
0.311731
0.241766
0.243777
0.296533
0.327142
1.164240
1.491980
1.740230
1.598820
1.005070
1.644110
1.444620
1.410550
1.203840
1.421560
0.304727
0.396031
0.338569
0.291386
0.294575
1.228680
1.328360
0.933416
1.451760
1.291180
0.765532
1.082850
1.443870
1.917900
1.244430
0.332873
0.470478
0.296320
0.377671
0.412549
0.753931
1.167670
1.227480
1.364800
0.965501
0.337174
0.418261
0.482889
0.506993
0.373249
0.480259
1.280900
1.422310
1.242430
0.506034
0.935183
1.043000
0.921929
1.439470
0.702381
0.513575
0.470218
0.444319
0.651598
0.356958
1.011550
1.293540
1.444640
1.216410
0.870280
0.975205
0.774846
0.881075
0.651166
1.042080
0.504195
0.558603
0.616187
0.395377
1.282150
0.618229
1.120300
1.387050
1.307150
1.499690
0.783299
0.715999
1.007190
0.596903
0.750443
0.410650
0.605282
0.632068
0.714210
1.430620
0.863871
1.748740
1.567140
2.059510
1.320520
0.636878
0.713666
0.731257
0.557842
0.622001
0.712266
0.855588
0.746112
0.717869
0.711754
1.851630
1.874960
1.461630
1.670320
0.638627
0.519011
2.322210
0.577451
0.489892
0.584646
1.503080
0.952268
0.702826
1.313550
1.020010
2.975980
1.707960
1.662040
2.777770
2.386000
0.475281
0.452367
0.427589
0.439806
0.523351
2.312520
1.056940
1.056260
1.104040
1.835160
3.019500
1.217290
2.014910
3.650960
2.107550
0.352920
0.429891
0.379348
0.351433
0.406829
2.555330
4.977140
1.492010
4.478020
5.070960
1.233030
1.451930
4.490750
4.577750
1.974560
1.741430
2.175690
5.319060
2.546980
5.063470
1.980600
2.876250
0.338119
0.287144
0.334058
0.346358
0.205457
1.441350
2.927620
2.571960
1.168390
1.608260
1.939460
2.458400
2.850370
2.794950
1.114490
2.207480
1.821190
1.892960
2.550690
2.647860
2.260880
2.471670
0.284254
0.150461
0.223008
0.262747
0.262162
1.410810
2.085500
1.369210
1.699870
1.205360
0.374125
2.045540
2.742000
0.564854
1.705860
1.646410
0.679851
2.810910
0.370289
1.200290
2.227840
0.690759
0.069303
0.162212
0.220426
0.206867
0.197925
1.766570
1.130480
1.560750
1.580560
1.852440
1.785790
2.105920
1.874440
1.846810
1.852420
0.849445
1.855460
2.126590
2.541890
2.409010
1.900600
2.344900
0.050345
0.194404
0.105467
0.135735
0.140935
0.625938
3.915470
1.173970
3.808340
2.934460
2.443960
1.661100
3.375740
4.129360
3.745820
4.165190
0.835708
3.218980
1.585840
2.603900
0.295401
3.751250
0.146429
0.107763
0.066969
0.158983
0.046082
0.002712
0.732288
1.213950
0.349610
0.457857
1.019360
0.707361
0.618260
0.339405
0.588308
0.329717
0.414977
0.245928
0.258404
0.488474
0.379282
0.250379
0.360421
0.260891
0.295717
0.291196
1.019090
1.097510
0.761381
0.973802
0.811370
0.820927
0.712753
0.852185
1.041360
0.575135
0.287126
0.691581
1.003910
0.389799
0.202330
0.261187
0.785358
0.541605
0.933723
0.891241
0.973990
0.433444
0.455931
0.273166
0.438310
0.257128
0.441112
0.333163
0.443961
0.410041
0.549148
0.593542
0.513927
0.147973
0.350352
0.217813
0.206467
0.361683
0.300138
0.284765
0.322368
0.199628
0.285116
0.484937
0.278358
0.318364
0.327196
0.357684
0.321750
0.556403
0.405927
0.385594
0.497782
0.403429
0.486173
0.469504
0.321455
0.154181
0.793935
0.606842
0.671905
0.678075
0.526561
0.691631
0.695171
0.753386
0.326202
0.842276
0.586577
0.719764
0.787762
0.382770
0.743036
0.577893
0.748492
0.569875
0.702095
0.625620
0.653823
0.483792
0.767564
0.652857
0.721857
0.591772
0.703387
0.574108
0.524518
0.207808
0.417457
0.576589
1.432490
1.458160
0.629081
0.873118
0.687135
1.068120
0.893168
1.225750
1.717150
1.609410
1.702970
1.254050
1.440550
1.226800
1.009420
1.083680
1.173550
1.665540
0.544387
0.624177
0.550910
0.745976
0.353398
0.341810
0.719717
0.929057
1.061150
1.210540
1.357940
0.377181
0.442187
0.000235
0.000127
1.051380
0.859287
0.743277
0.809637
0.792753
1.083080
0.312003
0.000402
0.000769
0.353834
1.027560
0.506506
0.000220
1.156110
0.000410
0.169677
0.175480
0.583180
0.356666
0.296191
0.000685
0.175288
0.579059
1.121350
0.479559
0.001391
0.588265
1.163980
0.241861
0.000220
0.394177
0.000346
0.166269
0.404036
0.101683
0.047415
1.097820
0.000603
0.544325
0.641241
0.001254
1.221840
0.560599
0.000221
0.146929
0.365655
0.380265
0.000308
0.152940
0.207103
0.000601
0.048865
0.632678
1.120050
0.001224
0.521899
0.000213
0.000312
1.200060
0.585511
0.453364
0.603992
0.250507
0.721158
0.793166
0.000223
0.001205
1.077230
0.000587
0.528137
0.162288
0.577311
0.564183
1.175460
0.449660
0.000374
0.000222
0.000149
1.055700
1.477960
1.386530
0.001191
0.989408
0.000584
0.539851
0.548474
0.184347
0.575707
1.103790
0.000589
0.000119
0.000360
0.000553
1.236450
1.540640
1.038980
0.001187
1.106820
1.820170
0.313449
0.505251
0.000582
0.403475
0.922528
1.003980
0.550875
0.729773
0.000559
0.000400
0.000166
0.663228
0.000715
0.001185
0.694244
1.324150
1.715970
0.000187
0.000583
0.730277
0.544993
0.344869
0.366527
0.877446
0.561218
1.674750
0.000304
0.000691
0.161382
0.730516
2.669400
1.824470
2.448790
0.001170
1.286290
0.665244
0.710865
0.000573
0.470384
0.229645
0.479352
0.483755
0.504930
0.735604
0.000326
1.677460
1.214590
1.200790
0.643634
1.132780
0.373502
0.605941
0.106629
0.001176
0.000225
0.594797
0.000557
0.224439
0.538211
0.908988
1.236610
0.856447
0.611442
0.862011
1.220800
1.221870
0.957326
0.423256
0.509217
0.217847
0.441394
0.115066
0.380572
0.280444
0.088615
0.507105
0.487920
0.000284
0.000602
0.625803
0.800066
1.214080
0.410554
0.827760
0.715226
1.187200
0.886922
0.874136
1.279530
0.968918
1.294400
1.420390
0.719265
0.160637
1.416760
1.317350
0.873971
1.311030
0.437352
1.344500
1.680500
0.739159
0.494392
1.491340
0.724474
1.298280
1.315400
1.571740
2.069420
0.500525
2.178320
0.944562
0.690562
0.656334
0.832634
0.529147
0.594339
0.133593
0.729596
0.630515
0.732630
0.622030
0.448584
0.481217
0.464657
0.679305
0.733570
0.942726
0.783229
0.627301
0.628572
0.661785
0.330195
0.372218
0.000761
0.194956
0.664140
0.557476
0.394769
1.569230
1.795730
1.937650
1.166300
1.732710
1.058940
1.255400
0.198547
0.744090
0.359304
0.814985
0.950073
0.437204
0.325176
0.572776
0.608110
0.566250
0.268357
0.342328
0.586334
0.235451
0.715475
0.227362
0.438448
0.780354
0.462694
0.410849
0.835889
1.306820
0.411835
0.835711
0.734404
0.564071
0.486455
0.849264
1.314140
1.246840
0.531161
0.509048
0.761671
0.605454
0.732979
0.673356
0.909219
0.638414
0.670269
0.452900
0.706915
0.669802
0.346265
0.783613
0.428574
0.829274
0.727485
0.745339
0.399047
0.376757
0.175287
0.335429
0.521304
0.354782
0.918286
0.305385
0.760257
0.725113
0.201168
0.697613
0.483341
0.325432
0.562157
0.392290
0.246367
0.298034
0.564318
0.443658
0.267558
0.287866
0.723462
0.415333
0.255998
0.424185
0.280445
0.494301
0.262009
0.352854
0.430891
0.273717
0.341716
0.185394
0.535685
0.274124
0.353012
0.516176
0.542070
0.402485
0.193059
0.306275
0.224729
0.300486
0.377467
0.204979
0.209948
0.280757
0.406964
0.313191
0.276311
0.354021
0.275469
0.315944
0.167750
0.242092
0.331502
0.151836
0.096940
0.298534
0.151573
0.134906
0.128620
0.149185
0.063466
0.192746
0.305231
0.177612
0.184725
0.174057
0.132320
0.114780
0.200041
0.356500
0.146757
0.317914
0.371594
0.315074
0.241858
0.079011
0.076735
0.188973
0.261261
0.109388
0.459591
0.630293
1.258790
0.155325
0.150637
0.130359
0.246261
0.316983
0.530404
0.294797
0.648313
0.674214
0.000598
0.455155
0.000558
0.000679
1.050030
1.316530
0.650113
0.708844
0.850020
0.000656
0.000702
0.379463
0.000600
0.606782
0.596475
0.511827
1.122310
0.781675
0.444345
0.000731
0.324819
0.000771
0.000608
0.648020
0.514276
0.506332
0.936935
0.130221
0.154867
0.000909
0.382221
0.262984
0.000615
0.000770
0.776175
0.422063
0.420217
0.566678
0.000624
0.000810
0.261674
0.001049
0.226337
0.616751
0.362035
0.473521
0.377870
0.178509
0.218960
0.000623
0.001221
0.000857
0.512775
0.285466
0.321676
0.380142
0.001374
0.000620
0.000888
0.246305
0.360166
0.316543
0.260941
0.001575
0.000925
0.092535
0.141400
0.000605
0.208861
0.207885
0.212340
0.341132
0.130148
0.215092
0.184362
0.143711
0.077361
0.155112
0.159714
0.344479
1.816320
1.195020
1.025830
2.335410
1.525230
0.694863
0.000678
0.000410
1.238150
0.648871
2.174590
1.051200
1.281150
1.868270
0.000433
0.938469
0.620466
0.000612
1.441730
0.949083
1.086860
1.766170
0.799510
0.518276
0.897657
0.000480
0.000667
0.000600
1.373040
1.031940
1.568500
0.800263
0.589272
0.932688
1.788870
1.826710
1.887390
1.237350
1.876220
1.923190
1.540540
1.643250
1.970960
2.060610
2.289560
2.055080
2.303810
2.202520
2.139610
2.408190
2.206320
2.259700
1.984420
2.127610
0.339767
2.097620
2.237660
1.300280
0.837739
0.512773
2.345760
2.437380
1.743290
1.129300
1.188390
0.918160
0.984182
1.042710
1.074880
1.055290
1.012200
0.996699
0.976149
0.926614
1.050330
1.208320
1.147290
1.293180
1.206880
1.220530
1.089660
1.104660
1.182700
1.130510
1.172100
1.214380
1.364180
1.607250
0.572169
1.404200
1.462510
1.087320
1.506070
1.249690
2.621320
0.977528
2.539070
2.341300
2.598210
1.319570
1.196400
0.151149
0.182626
0.205514
0.164397
0.481053
0.230405
0.334514
0.125233
0.101528
0.790803
0.172730
0.125211
0.141870
0.194888
0.182325
0.106011
0.160839
0.096001
0.205658
0.358070
0.205913
0.492794
1.546610
0.945609
1.243330
1.619420
1.739580
1.814180
0.908410
1.374910
0.637877
0.355821
0.876274
0.937852
0.840374
0.793023
0.855805
0.924291
0.885132
0.920210
0.897137
0.916915
0.926344
0.954255
1.020770
0.913584
0.685916
0.978968
0.978298
1.016860
1.018760
0.361292
0.943208
2.049600
1.868250
1.850030
1.128310
1.728040
1.622700
1.714770
1.321630
1.640930
0.900450
0.650548
1.724560
1.868700
1.825750
1.858600
1.915690
1.787070
1.964190
1.796220
1.910550
1.951280
2.008780
2.072180
2.014950
1.980750
1.999530
2.174790
1.161500
2.153410
0.930563
2.136120
1.786020
1.821470
2.393590
1.882580
2.946260
2.679540
2.793300
2.532470
2.866210
2.886520
2.963220
3.026110
2.784190
2.694710
2.961880
3.105260
3.057250
3.440010
3.454130
3.175960
3.232610
3.045220
1.715570
1.296380
3.022570
1.873650
2.644060
1.288960
1.997920
0.000313
0.995041
0.000519
1.352070
2.916140
0.929690
1.765560
2.762040
0.000475
1.682700
0.000824
1.210400
1.504260
1.123830
2.502210
2.738440
1.752990
0.794305
1.196590
0.000412
0.000711
0.000504
0.000778
0.000683
0.000634
0.001102
0.000923
0.000711
0.001906
0.001391
0.024893
0.084826
0.049508
0.001682
0.051023
0.701243
0.940645
0.598903
0.418000
0.345468
0.209154
0.151325
0.073419
0.040376
0.054770
0.040298
0.009482
0.007153
0.002019
0.001997
0.024498
0.016178
0.006887
0.003589
0.001649
0.001087
0.008122
0.009947
0.005205
0.001972
0.001110
0.000852
0.005798
0.009071
0.006193
0.002962
0.001868
0.001324
0.004006
0.008350
0.006930
0.004231
0.002707
0.001913
0.003683
0.007918
0.007264
0.005002
0.003406
0.002461
0.003786
0.007557
0.007346
0.005462
0.003885
0.002928
0.003933
0.007264
0.007307
0.005694
0.004202
0.003266
0.004161
0.007016
0.007185
0.005779
0.004363
0.003464
0.004307
0.006780
0.007003
0.005737
0.004387
0.003512
0.004409
0.006526
0.006747
0.005580
0.004270
0.003404
0.004378
0.006206
0.006399
0.005299
0.004013
0.003136
0.004225
0.005778
0.005928
0.004887
0.003614
0.002706
0.003847
0.005191
0.005318
0.004344
0.003088
0.002124
0.003324
0.004456
0.004578
0.003715
0.002501
0.001458
0.002788
0.003703
0.003841
0.003143
0.002052
0.001017
0.002817
0.003384
0.003459
0.002933
0.002113
0.001441
0.003964
0.004052
0.003840
0.003359
0.002782
0.002394
0.005537
0.005403
0.004883
0.004257
0.003737
0.003437
0.007109
0.006870
0.006104
0.005264
0.004701
0.004400
0.008345
0.008057
0.007121
0.006135
0.005508
0.005194
0.008912
0.008721
0.007785
0.006722
0.006082
0.005763
0.009025
0.008901
0.008026
0.007009
0.006395
0.006097
0.008633
0.008645
0.007926
0.007014
0.006472
0.006210
0.007980
0.008108
0.007571
0.006807
0.006356
0.006142
0.007219
0.007433
0.007063
0.006461
0.006105
0.005940
0.006408
0.006703
0.006493
0.006035
0.005771
0.005652
0.005682
0.006007
0.005913
0.005588
0.005400
0.005321
0.005016
0.005375
0.005379
0.005153
0.005030
0.004982
0.004484
0.004846
0.004911
0.004764
0.004685
0.004661
0.004060
0.004426
0.004533
0.004433
0.004384
0.004375
0.003767
0.004122
0.004245
0.004170
0.004136
0.004134
0.003578
0.003922
0.004045
0.003974
0.003941
0.003941
0.003471
0.003805
0.003918
0.003837
0.003797
0.003795
0.003424
0.003749
0.003847
0.003749
0.003698
0.003691
0.003409
0.003735
0.003821
0.003701
0.003638
0.003627
0.003423
0.003754
0.003828
0.003688
0.003613
0.003596
0.003464
0.003805
0.003868
0.003705
0.003619
0.003597
0.003536
0.003891
0.003942
0.003753
0.003654
0.003627
0.003653
0.004020
0.004051
0.003832
0.003716
0.003682
0.003815
0.004196
0.004199
0.003938
0.003802
0.003758
0.004043
0.004427
0.004384
0.004072
0.003908
0.003851
0.004322
0.004708
0.004606
0.004224
0.004024
0.003949
0.004676
0.005039
0.004850
0.004386
0.004138
0.004040
0.005061
0.005397
0.005104
0.004535
0.004232
0.004104
0.005489
0.005759
0.005329
0.004649
0.004280
0.004118
0.005861
0.006056
0.005486
0.004687
0.004252
0.004053
0.006117
0.006218
0.005505
0.004610
0.004114
0.003877
0.006152
0.006142
0.005319
0.004378
0.003837
0.003566
0.005776
0.005722
0.004886
0.003968
0.003414
0.003104
0.005085
0.004969
0.004197
0.003430
0.002870
0.002503
0.003995
0.003939
0.003416
0.002898
0.002319
0.001809
0.002911
0.002995
0.002875
0.002667
0.001978
0.001147
0.002482
0.002706
0.002959
0.002921
0.002062
0.000835
0.002752
0.003104
0.003526
0.003482
0.002456
0.001096
0.003301
0.003673
0.004127
0.004041
0.002874
0.001476
0.003438
0.003850
0.004380
0.004394
0.003129
0.001695
0.003154
0.003586
0.004269
0.004446
0.003115
0.001694
0.002407
0.002791
0.003636
0.004235
0.002822
0.001489
0.003675
0.003481
0.003504
0.004001
0.002308
0.001223
0.010139
0.010180
0.009290
0.006251
0.002637
0.000933
0.019847
0.019746
0.021263
0.015904
0.003314
0.001611
0.050127
0.041984
0.011643
0.007005
0.003190
0.001717
0.034265
0.024209
0.011243
0.005119
0.002862
0.001324
0.018373
0.015352
0.009212
0.004727
0.002967
0.002025
0.009778
0.011045
0.008128
0.004865
0.003271
0.002520
0.006609
0.009113
0.007567
0.005004
0.003452
0.002620
0.004379
0.007888
0.007241
0.005068
0.003453
0.002481
0.003431
0.007137
0.006936
0.005050
0.003378
0.002246
0.002897
0.006587
0.006657
0.004973
0.003273
0.002011
0.006175
0.006388
0.004858
0.003159
0.001804
0.002702
0.005845
0.006126
0.004716
0.003035
0.001619
0.002759
0.005567
0.005866
0.004550
0.002903
0.001449
0.002929
0.005331
0.005600
0.004366
0.002770
0.001317
0.003169
0.005137
0.005335
0.004177
0.002667
0.001297
0.003679
0.005048
0.005093
0.004015
0.002644
0.001473
0.004438
0.005128
0.004935
0.003936
0.002752
0.001857
0.005444
0.005483
0.004951
0.003989
0.003021
0.002373
0.006741
0.006147
0.005177
0.004219
0.003412
0.002943
0.007632
0.006848
0.005631
0.004572
0.003868
0.003494
0.008491
0.007553
0.006124
0.004988
0.004316
0.003983
0.008683
0.007969
0.006575
0.005377
0.004707
0.004388
0.008522
0.008132
0.006912
0.005677
0.005024
0.004706
0.008353
0.008160
0.007055
0.005887
0.005245
0.004941
0.007882
0.007952
0.007065
0.005964
0.005377
0.005091
0.007452
0.007622
0.006901
0.005931
0.005406
0.005154
0.006967
0.007182
0.006607
0.005790
0.005342
0.005131
0.006356
0.006637
0.006232
0.005559
0.005198
0.005030
0.005817
0.006082
0.005790
0.005273
0.004991
0.004867
0.005200
0.005504
0.005343
0.004953
0.004749
0.004662
0.004674
0.004974
0.004904
0.004633
0.004491
0.004436
0.004167
0.004495
0.004515
0.004332
0.004240
0.004209
0.003780
0.004115
0.004189
0.004070
0.004011
0.003997
0.003497
0.003839
0.003944
0.003857
0.003815
0.003809
0.003328
0.003664
0.003776
0.003695
0.003656
0.003652
0.003249
0.003574
0.003671
0.003579
0.003533
0.003528
0.003208
0.003529
0.003614
0.003501
0.003445
0.003435
0.003197
0.003519
0.003587
0.003454
0.003386
0.003372
0.003194
0.003527
0.003588
0.003432
0.003354
0.003336
0.003213
0.003560
0.003613
0.003436
0.003347
0.003324
0.003263
0.003627
0.003667
0.003465
0.003363
0.003335
0.003347
0.003730
0.003753
0.003517
0.003399
0.003365
0.003487
0.003880
0.003870
0.003593
0.003454
0.003411
0.003663
0.004074
0.004022
0.003687
0.003521
0.003466
0.003910
0.004318
0.004201
0.003795
0.003594
0.003522
0.004174
0.004596
0.004404
0.003907
0.003663
0.003570
0.004513
0.004912
0.004611
0.004013
0.003716
0.003599
0.004825
0.005225
0.004814
0.004095
0.003742
0.003596
0.005199
0.005537
0.004973
0.004140
0.003728
0.003550
0.005535
0.005792
0.005079
0.004135
0.003666
0.003457
0.005842
0.005978
0.005112
0.004073
0.003557
0.003315
0.006276
0.006121
0.005048
0.003979
0.003405
0.003126
0.006494
0.006114
0.004943
0.003852
0.003232
0.002888
0.006656
0.006009
0.004755
0.003743
0.003035
0.002594
0.006498
0.005688
0.004527
0.003657
0.002838
0.002224
0.005604
0.005033
0.004288
0.003626
0.002662
0.001773
0.004557
0.004296
0.004081
0.003693
0.002562
0.001284
0.002909
0.003459
0.003991
0.003865
0.002612
0.000972
0.001507
0.002999
0.004068
0.004155
0.002851
0.001218
0.002257
0.003454
0.004455
0.004595
0.003245
0.001851
0.005161
0.005311
0.005437
0.005251
0.003745
0.002461
0.009826
0.009425
0.008230
0.006699
0.004239
0.002656
0.016615
0.016181
0.014389
0.009960
0.004577
0.002133
0.019347
0.019033
0.019887
0.016726
0.004126
0.001756
0.045151
0.040144
0.012368
0.007415
0.003440
0.002027
0.030241
0.023879
0.014013
0.006579
0.004079
0.002230
0.021865
0.018174
0.011411
0.006908
0.004531
0.003334
0.014065
0.013575
0.010071
0.006711
0.004901
0.003939
0.009379
0.010767
0.008977
0.006458
0.004874
0.004036
0.006869
0.009033
0.008129
0.006089
0.004596
0.003745
0.005010
0.007801
0.007468
0.005684
0.004176
0.003241
0.003928
0.006944
0.006910
0.005295
0.003721
0.002643
0.003117
0.006293
0.006454
0.004945
0.003301
0.002036
0.002656
0.005817
0.006078
0.004656
0.002962
0.001492
0.002465
0.005477
0.005786
0.004442
0.002750
0.001142
0.002594
0.005284
0.005582
0.004320
0.002706
0.001202
0.003153
0.005277
0.005486
0.004311
0.002850
0.001647
0.004045
0.005511
0.005535
0.004429
0.003169
0.002266
0.005459
0.006096
0.005758
0.004677
0.003610
0.002931
0.007229
0.007030
0.006165
0.005036
0.004091
0.003564
0.008922
0.008141
0.006745
0.005413
0.004546
0.004093
0.010672
0.009274
0.007259
0.005760
0.004877
0.004466
0.011088
0.009784
0.007639
0.005936
0.005056
0.004657
0.010921
0.009778
0.007679
0.005929
0.005079
0.004687
0.010145
0.009339
0.007426
0.005800
0.004986
0.004621
0.008727
0.008552
0.007120
0.005581
0.004871
0.004522
0.007850
0.007889
0.006725
0.005397
0.004753
0.004443
0.007049
0.007268
0.006357
0.005218
0.004658
0.004387
0.006329
0.006666
0.006007
0.005035
0.004564
0.004338
0.005879
0.006151
0.005619
0.004842
0.004450
0.004272
0.005296
0.005601
0.005235
0.004613
0.004310
0.004175
0.004824
0.005083
0.004823
0.004367
0.004140
0.004047
0.004251
0.004549
0.004431
0.004108
0.003954
0.003894
0.003766
0.004077
0.004064
0.003863
0.003764
0.003731
0.003330
0.003683
0.003764
0.003645
0.003586
0.003571
0.003046
0.003416
0.003547
0.003470
0.003430
0.003425
0.002921
0.003285
0.003412
0.003340
0.003302
0.003299
0.002883
0.003235
0.003345
0.003248
0.003202
0.003195
0.002900
0.003235
0.003309
0.003186
0.003126
0.003115
0.002883
0.003229
0.003292
0.003142
0.003071
0.003055
0.002868