# vtk DataFile Version 2.0
test
ASCII
DATASET UNSTRUCTURED_GRID
POINTS 41454 float
0.750000 -0.500000 0.050000
0.750000 0.430000 0.050000
0.770125 -0.522751 0.050000
0.780428 -0.506504 0.050000
0.801300 -0.492540 0.050000
0.809663 -0.474822 0.050000
0.818299 -0.456249 0.050000
0.823215 -0.438171 0.050000
0.827530 -0.419511 0.050000
0.830241 -0.401193 0.050000
0.832180 -0.382584 0.050000
0.833058 -0.364159 0.050000
0.833109 -0.345624 0.050000
0.832237 -0.327278 0.050000
0.830502 -0.308993 0.050000
0.827885 -0.291038 0.050000
0.824425 -0.273381 0.050000
0.820226 -0.256335 0.050000
0.815447 -0.239879 0.050000
0.810406 -0.224313 0.050000
0.805500 -0.209426 0.050000
0.800969 -0.195109 0.050000
0.797228 -0.181236 0.050000
0.794140 -0.167223 0.050000
0.791784 -0.153359 0.050000
0.790029 -0.139126 0.050000
0.788678 -0.124716 0.050000
0.787609 -0.110013 0.050000
0.786687 -0.095107 0.050000
0.785837 -0.080019 0.050000
0.785003 -0.064810 0.050000
0.784161 -0.049517 0.050000
0.783298 -0.034169 0.050000
0.782408 -0.018791 0.050000
0.781491 -0.003399 0.050000
0.780546 0.011994 0.050000
0.779576 0.027377 0.050000
0.778581 0.042738 0.050000
0.777566 0.058064 0.050000
0.776535 0.073347 0.050000
0.775496 0.088564 0.050000
0.774458 0.103705 0.050000
0.773444 0.118734 0.050000
0.772477 0.133639 0.050000
0.771601 0.148371 0.050000
0.770878 0.162915 0.050000
0.770378 0.177237 0.050000
0.770230 0.191305 0.050000
0.770510 0.205196 0.050000
0.771381 0.218823 0.050000
0.772945 0.232430 0.050000
0.775219 0.246094 0.050000
0.778154 0.259979 0.050000
0.781667 0.274408 0.050000
0.785379 0.289646 0.050000
0.788735 0.305872 0.050000
0.791282 0.323012 0.050000
0.792361 0.340934 0.050000
0.791964 0.359041 0.050000
0.789215 0.377455 0.050000
0.784937 0.394896 0.050000
0.776257 0.411845 0.050000
0.768892 0.425447 0.050000
-0.750000 0.430000 0.050000
0.733871 0.430000 0.050000
0.717742 0.430000 0.050000
0.701613 0.430000 0.050000
0.685484 0.430000 0.050000
0.669355 0.430000 0.050000
0.653226 0.430000 0.050000
0.637097 0.430000 0.050000
0.620968 0.430000 0.050000
0.604839 0.430000 0.050000
0.588710 0.430000 0.050000
0.572581 0.430000 0.050000
0.556452 0.430000 0.050000
0.540323 0.430000 0.050000
0.524194 0.430000 0.050000
0.508065 0.430000 0.050000
0.491935 0.430000 0.050000
0.475807 0.430000 0.050000
0.459677 0.430000 0.050000
0.443548 0.430000 0.050000
0.427419 0.430000 0.050000
0.411290 0.430000 0.050000
0.395161 0.430000 0.050000
0.379032 0.430000 0.050000
0.362903 0.430000 0.050000
0.346774 0.430000 0.050000
0.330645 0.430000 0.050000
0.314516 0.430000 0.050000
0.298387 0.430000 0.050000
0.282258 0.430000 0.050000
0.266129 0.430000 0.050000
0.250000 0.430000 0.050000
0.233871 0.430000 0.050000
0.217742 0.430000 0.050000
0.201613 0.430000 0.050000
0.185484 0.430000 0.050000
0.169355 0.430000 0.050000
0.153226 0.430000 0.050000
0.137097 0.430000 0.050000
0.120968 0.430000 0.050000
0.104839 0.430000 0.050000
0.088710 0.430000 0.050000
0.072581 0.430000 0.050000
0.056452 0.430000 0.050000
0.040323 0.430000 0.050000
0.024194 0.430000 0.050000
0.008065 0.430000 0.050000
-0.008065 0.430000 0.050000
-0.024194 0.430000 0.050000
-0.040323 0.430000 0.050000
-0.056452 0.430000 0.050000
-0.072581 0.430000 0.050000
-0.088710 0.430000 0.050000
-0.104839 0.430000 0.050000
-0.120968 0.430000 0.050000
-0.137097 0.430000 0.050000
-0.153226 0.430000 0.050000
-0.169355 0.430000 0.050000
-0.185484 0.430000 0.050000
-0.201613 0.430000 0.050000
-0.217742 0.430000 0.050000
-0.233871 0.430000 0.050000
-0.250000 0.430000 0.050000
-0.266129 0.430000 0.050000
-0.282258 0.430000 0.050000
-0.298387 0.430000 0.050000
-0.314516 0.430000 0.050000
-0.330645 0.430000 0.050000
-0.346774 0.430000 0.050000
-0.362903 0.430000 0.050000
-0.379032 0.430000 0.050000
-0.395161 0.430000 0.050000
-0.411290 0.430000 0.050000
-0.427419 0.430000 0.050000
-0.443548 0.430000 0.050000
-0.459677 0.430000 0.050000
-0.475807 0.430000 0.050000
-0.491935 0.430000 0.050000
-0.508065 0.430000 0.050000
-0.524194 0.430000 0.050000
-0.540323 0.430000 0.050000
-0.556452 0.430000 0.050000
-0.572581 0.430000 0.050000
-0.588710 0.430000 0.050000
-0.604839 0.430000 0.050000
-0.620968 0.430000 0.050000
-0.637097 0.430000 0.050000
-0.653226 0.430000 0.050000
-0.669355 0.430000 0.050000
-0.685484 0.430000 0.050000
-0.701613 0.430000 0.050000
-0.717742 0.430000 0.050000
-0.733871 0.430000 0.050000
-0.750000 -0.500000 0.050000
-0.767267 0.423405 0.050000
-0.774316 0.409753 0.050000
-0.782405 0.392707 0.050000
-0.786646 0.375306 0.050000
-0.789493 0.356860 0.050000
-0.790215 0.338786 0.050000
-0.789616 0.320708 0.050000
-0.787729 0.303447 0.050000
-0.785084 0.286703 0.050000
-0.781973 0.270938 0.050000
-0.778894 0.255760 0.050000
-0.775988 0.241134 0.050000
-0.773555 0.226906 0.050000
-0.771595 0.212760 0.050000
-0.770132 0.198718 0.050000
-0.769136 0.184590 0.050000
-0.768522 0.170357 0.050000
-0.768210 0.155982 0.050000
-0.768128 0.141471 0.050000
-0.768214 0.126829 0.050000
-0.768424 0.112082 0.050000
-0.768722 0.097241 0.050000
-0.769087 0.082338 0.050000
-0.769502 0.067376 0.050000
-0.769959 0.052387 0.050000
-0.770449 0.037361 0.050000
-0.770968 0.022333 0.050000
-0.771508 0.007284 0.050000
-0.772058 -0.007746 0.050000
-0.772612 -0.022768 0.050000
-0.773161 -0.037736 0.050000
-0.773712 -0.052631 0.050000
-0.774281 -0.067407 0.050000
-0.774910 -0.082019 0.050000
-0.775661 -0.096428 0.050000
-0.776621 -0.110592 0.050000
-0.777904 -0.124485 0.050000
-0.779637 -0.138123 0.050000
-0.781986 -0.151468 0.050000
-0.785039 -0.164794 0.050000
-0.788846 -0.177875 0.050000
-0.793533 -0.191291 0.050000
-0.798813 -0.204974 0.050000
-0.804658 -0.219248 0.050000
-0.810689 -0.234367 0.050000
-0.816539 -0.250331 0.050000
-0.821947 -0.267152 0.050000
-0.826630 -0.284677 0.050000
-0.830488 -0.302775 0.050000
-0.833362 -0.321351 0.050000
-0.835269 -0.340200 0.050000
-0.836047 -0.359367 0.050000
-0.835839 -0.378537 0.050000
-0.834273 -0.397996 0.050000
-0.831788 -0.417157 0.050000
-0.827247 -0.436735 0.050000
-0.822105 -0.455593 0.050000
-0.812447 -0.474853 0.050000
-0.803565 -0.493134 0.050000
-0.781044 -0.506767 0.050000
-0.769951 -0.523937 0.050000
-0.733871 -0.500000 0.050000
-0.717742 -0.500000 0.050000
-0.701613 -0.500000 0.050000
-0.685484 -0.500000 0.050000
-0.669355 -0.500000 0.050000
-0.653226 -0.500000 0.050000
-0.637097 -0.500000 0.050000
-0.620968 -0.500000 0.050000
-0.604839 -0.500000 0.050000
-0.588710 -0.500000 0.050000
-0.572581 -0.500000 0.050000
-0.556452 -0.500000 0.050000
-0.540323 -0.500000 0.050000
-0.524194 -0.500000 0.050000
-0.508065 -0.500000 0.050000
-0.491935 -0.500000 0.050000
-0.475807 -0.500000 0.050000
-0.459677 -0.500000 0.050000
-0.443548 -0.500000 0.050000
-0.427419 -0.500000 0.050000
-0.411290 -0.500000 0.050000
-0.395161 -0.500000 0.050000
-0.379032 -0.500000 0.050000
-0.362903 -0.500000 0.050000
-0.346774 -0.500000 0.050000
-0.330645 -0.500000 0.050000
-0.314516 -0.500000 0.050000
-0.298387 -0.500000 0.050000
-0.282258 -0.500000 0.050000
-0.266129 -0.500000 0.050000
-0.250000 -0.500000 0.050000
-0.233871 -0.500000 0.050000
-0.217742 -0.500000 0.050000
-0.201613 -0.500000 0.050000
-0.185484 -0.500000 0.050000
-0.169355 -0.500000 0.050000
-0.153226 -0.500000 0.050000
-0.137097 -0.500000 0.050000
-0.120968 -0.500000 0.050000
-0.104839 -0.500000 0.050000
-0.088710 -0.500000 0.050000
-0.072581 -0.500000 0.050000
-0.056452 -0.500000 0.050000
-0.040323 -0.500000 0.050000
-0.024194 -0.500000 0.050000
-0.008065 -0.500000 0.050000
0.008065 -0.500000 0.050000
0.024194 -0.500000 0.050000
0.040323 -0.500000 0.050000
0.056452 -0.500000 0.050000
0.072581 -0.500000 0.050000
0.088710 -0.500000 0.050000
0.104839 -0.500000 0.050000
0.120968 -0.500000 0.050000
0.137097 -0.500000 0.050000
0.153226 -0.500000 0.050000
0.169355 -0.500000 0.050000
0.185484 -0.500000 0.050000
0.201613 -0.500000 0.050000
0.217742 -0.500000 0.050000
0.233871 -0.500000 0.050000
0.250000 -0.500000 0.050000
0.266129 -0.500000 0.050000
0.282258 -0.500000 0.050000
0.298387 -0.500000 0.050000
0.314516 -0.500000 0.050000
0.330645 -0.500000 0.050000
0.346774 -0.500000 0.050000
0.362903 -0.500000 0.050000
0.379032 -0.500000 0.050000
0.395161 -0.500000 0.050000
0.411290 -0.500000 0.050000
0.427419 -0.500000 0.050000
0.443548 -0.500000 0.050000
0.459677 -0.500000 0.050000
0.475807 -0.500000 0.050000
0.491935 -0.500000 0.050000
0.508065 -0.500000 0.050000
0.524194 -0.500000 0.050000
0.540323 -0.500000 0.050000
0.556452 -0.500000 0.050000
0.572581 -0.500000 0.050000
0.588710 -0.500000 0.050000
0.604839 -0.500000 0.050000
0.620968 -0.500000 0.050000
0.637097 -0.500000 0.050000
0.653226 -0.500000 0.050000
0.669355 -0.500000 0.050000
0.685484 -0.500000 0.050000
0.701613 -0.500000 0.050000
0.717742 -0.500000 0.050000
0.733871 -0.500000 0.050000
0.766936 -0.494091 0.050000
0.779282 -0.494719 0.050000
0.789190 -0.482253 0.050000
0.798821 -0.467877 0.050000
0.804587 -0.451175 0.050000
0.809948 -0.434079 0.050000
0.813385 -0.416705 0.050000
0.816203 -0.399018 0.050000
0.817848 -0.381340 0.050000
0.818752 -0.363492 0.050000
0.818706 -0.345733 0.050000
0.817837 -0.327946 0.050000
0.816049 -0.310368 0.050000
0.813378 -0.292938 0.050000
0.809786 -0.275930 0.050000
0.805342 -0.259313 0.050000
0.800161 -0.243413 0.050000
0.794544 -0.228064 0.050000
0.788916 -0.213414 0.050000
0.783904 -0.199111 0.050000
0.779648 -0.184735 0.050000
0.776394 -0.170579 0.050000
0.774024 -0.155992 0.050000
0.772362 -0.141376 0.050000
0.771193 -0.126521 0.050000
0.770302 -0.111542 0.050000
0.769540 -0.096418 0.050000
0.768807 -0.081203 0.050000
0.768060 -0.065914 0.050000
0.767275 -0.050575 0.050000
0.766447 -0.035204 0.050000
0.765578 -0.019814 0.050000
0.764667 -0.004418 0.050000
0.763719 0.010977 0.050000
0.762733 0.026361 0.050000
0.761713 0.041725 0.050000
0.760659 0.057062 0.050000
0.759576 0.072359 0.050000
0.758465 0.087610 0.050000
0.757337 0.102795 0.050000
0.756202 0.117911 0.050000
0.755084 0.132925 0.050000
0.754021 0.147841 0.050000
0.753074 0.162623 0.050000
[...]
CELL_DATA 34596
SCALARS Mises_Stress_Abs(MPa) float 1
LOOKUP_TABLE default
93.218500
97.871600
69.944300
84.192300
90.652900
84.814900
91.617400
89.232500
61.070200
93.546900
23.989300
80.151000
44.242200
10.955300
3.770310
1.964360
1.544650
0.640087
34.420500
0.344902
4.069970
16.784300
51.166300
3.117160
2.398210
2.359080
1.209540
0.597676
50.765300
29.163300
45.144900
14.466900
19.984100
23.140900
35.806400
41.302300
32.422400
21.851000
35.012900
23.217000
36.865400
43.380400
49.114700
54.139400
25.305700
36.266100
2.614410
3.264330
2.240040
2.467430
1.174660
44.052400
50.905400
42.884100
33.874300
27.094400
45.417200
53.279200
45.959200
48.432300
48.448800
44.493800
47.119100
15.019900
42.706900
48.389900
15.133100
38.156600
31.053400
1.787530
2.976880
3.317670
3.191200
2.585640
43.940400
31.142600
52.450500
103.348000
33.783800
32.825900
112.242000
106.933000
34.147800
47.924100
119.714000
36.763600
30.638200
112.150000
114.111000
56.846900
112.887000
110.167000
3.093970
4.084430
3.135100
3.699420
3.499380
23.417200
27.703000
42.184800
37.080300
55.284100
62.840500
28.686000
26.895400
42.986700
24.825300
4.175360
4.676750
3.858380
3.986910
26.093700
20.577200
19.101300
8.514340
10.972300
36.511700
22.621100
30.433800
3.628290
38.656200
34.519800
43.475900
28.393500
40.211100
24.228500
17.795700
5.412740
4.327920
4.259650
4.953780
5.521560
20.090300
25.607900
29.383600
26.966000
17.925700
25.968600
22.939100
22.754700
19.444400
22.800300
5.369090
6.518310
5.926660
5.050490
5.062660
21.163600
22.378000
16.777900
24.508000
21.954000
12.100500
17.460100
23.256700
30.441800
19.820100
5.831850
8.139160
5.229760
6.356320
6.917420
12.062700
18.477200
19.654800
21.563000
15.488100
5.791310
7.300980
8.439760
8.420840
6.439080
8.072200
21.620900
23.979300
20.845700
8.230890
14.841200
16.744800
14.787300
22.766200
11.082900
8.579020
7.952800
7.767700
11.243900
6.259680
16.052400
21.635700
24.396200
20.511400
14.260400
15.565600
12.364800
13.889700
10.375900
16.448900
8.682970
9.696850
10.269400
6.728700
21.622200
10.782000
18.482900
23.065500
21.037500
25.311500
12.548200
11.331700
15.864300
9.407040
11.966900
7.164620
10.233600
10.951700
11.886300
24.124400
14.873500
29.022700
26.107400
33.615400
22.349800
10.004400
11.242300
11.623300
8.866480
9.866040
11.773900
14.563200
12.978500
12.413600
11.866700
30.708500
31.249900
24.646900
28.222900
10.013500
8.181360
38.101400
9.240530
7.713620
9.256330
25.495200
15.767900
11.573300
22.490700
17.024500
49.087800
28.637300
27.469500
46.403800
40.165100
7.481980
7.176950
6.713470
6.892620
8.266970
39.069600
17.447500
17.411100
18.253900
30.643000
49.915900
20.143100
33.292000
61.180000
35.366200
5.510250
6.740170
5.974580
5.505630
6.517920
42.525100
82.954300
24.693800
74.486100
84.404000
20.437900
24.062700
74.974400
76.136700
32.707400
28.751900
35.938800
88.600100
42.562700
84.480800
32.823900
47.592400
5.270230
4.504240
5.303790
5.406820
3.197590
23.969300
48.793900
42.832300
19.351800
26.753400
32.240800
41.056700
47.511600
46.662400
18.738600
36.633300
30.068100
31.327300
42.245400
43.891700
37.409100
40.950900
4.390460
2.342220
3.462350
4.151420
4.244930
23.581500
34.714600
22.620700
28.382200
19.868900
5.972170
34.102500
45.479100
9.389040
28.225500
27.234000
11.414400
46.667100
6.323030
19.821200
36.951100
11.526700
1.062100
2.528310
3.401790
3.338150
3.010720
29.412500
18.980600
26.113500
26.268200
30.907900
29.737000
35.151300
31.247800
30.891000
30.811000
14.034700
30.863200
35.415100
42.250900
40.032400
31.654600
38.925500
0.782248
3.053610
1.593560
2.116580
2.474220
10.496400
65.103600
19.775900
63.481700
49.053500
40.976800
27.852800
56.368600
68.749500
62.336700
69.316800
13.882400
53.682800
26.509600
43.424400
4.864880
62.457400
2.433720
1.730890
1.113090
2.646090
0.764805
0.084178
10.949400
18.359500
5.856960
6.387390
15.554100
11.180300
9.853050
5.549920
9.020470
5.364830
6.637770
4.380140
4.035950
7.835660
6.759160
3.807430
5.584510
3.663500
4.290120
4.126530
15.428600
16.633200
12.135500
14.820000
12.452400
12.910300
10.888800
12.929300
15.791300
8.783210
4.335730
10.712400
16.138900
5.832910
3.379530
4.470250
12.266200
8.330680
14.915900
14.368800
15.426900
7.331910
7.493790
4.535050
7.375390
4.634570
6.628840
5.006150
6.530220
6.021150
8.065280
8.720720
7.700880
1.973680
5.183690
3.723120
3.350610
5.206700
4.383410
4.172690
4.798400
3.326430
4.249020
7.888110
4.463500
5.135010
5.323990
5.875380
5.368720
9.014520
6.632420
6.250830
8.128890
6.486430
7.894330
7.642150
4.833490
2.548760
11.849000
9.287640
10.081200
10.280000
8.028770
10.604300
10.580400
11.497900
5.109420
13.069900
9.015830
10.990000
12.117700
6.243460
11.601900
8.893120
11.481200
9.185660
11.213900
9.948260
10.565600
7.758900
12.557700
10.548500
11.738800
9.548030
11.390300
9.239640
8.111850
3.370790
6.701380
8.880660
22.013200
22.328400
10.151200
13.400300
10.686300
16.631300
13.997500
18.904600
27.628700
25.946900
26.037900
19.826700
22.994700
19.187100
15.733100
16.759800
18.155100
25.438600
8.482560
9.840640
8.733190
11.613500
5.437130
5.325070
11.339100
14.726000
16.878900
19.261800
21.748400
6.430770
7.050290
0.003528
0.001910
15.504200
13.177700
11.247300
13.010200
12.279800
17.255700
4.978000
0.006582
0.012505
5.318900
16.158900
7.477300
0.003400
17.323000
0.006160
2.054020
2.830160
9.319340
6.051720
4.111570
0.011174
2.764070
9.605940
17.658100
7.317970
0.022586
8.872620
17.415700
3.946060
0.003638
6.680840
0.005309
2.734790
5.941710
2.018990
1.081190
17.123500
0.009712
8.440140
10.394100
0.020245
18.583600
8.291580
0.003737
2.584720
6.103250
6.615150
0.004797
2.072010
3.190430
0.009636
0.975054
10.368200
17.538600
0.019654
7.957170
0.003628
0.004958
18.138000
8.860170
7.517010
9.571160
4.055450
11.696500
13.071200
0.003589
0.019279
16.668400
0.009379
8.176580
2.799410
9.301880
8.359710
18.060900
6.644080
0.006105
0.003715
0.002392
16.570800
23.708700
22.291900
0.019023
15.353000
0.009313
8.266570
8.962000
3.047300
8.703510
16.835200
0.009444
0.001957
0.005842
0.008954
18.440300
24.333000
16.471700
0.018920
17.705600
29.110700
5.116850
7.819460
0.009262
6.466610
14.107000
15.529900
8.249100
11.727300
0.009245
0.006623
0.002675
10.639800
0.011547
0.018855
11.039100
21.236200
27.413000
0.002928
0.009250
11.139500
8.412330
5.514120
6.044240
13.549300
8.421360
26.563700
0.005101
0.011471
2.819650
10.921900
42.331200
28.950700
38.884800
0.018577
20.540500
9.978280
11.485400
0.009073
7.271440
3.713170
7.709000
8.068060
7.731620
11.376000
0.005447
26.633100
18.979600
19.031400
10.463900
18.030600
5.419470
9.585130
1.862400
0.018551
0.003549
9.397810
0.008750
3.526930
8.600750
14.439500
19.560200
14.046800
8.962630
14.119200
19.413200
19.569300
15.167700
7.266960
8.505670
3.167280
6.918290
1.792570
6.166610
3.590140
1.619650
7.785050
7.630140
0.004433
0.009430
9.715880
12.538200
19.265500
6.598520
13.226500
10.643600
19.287800
13.445500
13.957100
20.803400
15.468000
20.669300
22.609100
11.579300
2.590810
22.541800
21.099100
13.667300
20.984200
6.569470
21.509800
26.732000
11.433800
7.639380
23.690700
10.434500
20.745200
21.200000
24.276300
32.962000
7.941940
34.556700
14.945300
11.035000
10.533500
13.312200
8.441150
9.505680
2.231990
11.743200
10.000400
11.755900
9.877020
6.752990
7.509840
7.386850
10.886400
12.121300
15.101800
13.238600
10.806800
9.534280
10.302600
5.011140
6.552770
0.016152
3.037240
10.574300
8.802180
6.334060
23.580800
27.745300
30.401300
18.623600
26.820300
16.441700
19.010200
3.164320
11.933000
5.674740
12.757400
14.766400
7.797400
6.267790
9.299660
10.348200
9.480340
3.735760
4.777410
10.987400
4.489890
11.950400
3.128180
7.391170
12.391300
6.402150
8.053750
15.824700
21.484600
5.740240
13.501000
10.147800
10.369500
9.076230
16.181700
21.267500
20.775600
8.854750
7.067810
10.432700
11.074800
14.360400
10.109900
17.187600
12.809500
11.208200
8.481650
12.991400
9.052160
4.699790
10.642900
5.883070
11.501500
10.511200
14.039700
5.554080
7.316140
3.715650
6.782760
10.085600
5.199680
15.167700
5.661110
12.192300
12.501800
2.825550
9.577930
6.565300
4.324300
9.352990
6.616620
3.889520
6.057400
9.238770
8.611140
4.635960
5.566250
12.073600
6.961210
3.356180
5.777090
3.780480
6.886180
4.331200
7.148900
8.427980
5.315940
5.317220
2.747960
8.862320
3.843680
6.259980
8.572260
9.267460
5.490600
3.553650
4.060220
3.186590
6.053220
7.368430
4.153730
3.989450
4.832740
5.649810
5.964620
5.026530
6.626670
3.890690
4.414420
2.313530
3.370380
4.545200
2.204760
1.477560
5.219550
2.114960
2.434720
2.561620
2.254500
0.867736
2.850360
5.169200
3.647000
3.528380
2.772730
1.975210
1.499820
3.730670
6.396110
2.076170
5.286680
5.611040
5.375920
3.389530
1.285010
1.099250
2.378780
3.404450
1.412880
6.085840
8.500420
20.911100
2.393250
3.521760
2.607170
5.552660
7.086830
11.350500
6.015950
13.602400
10.085600
0.008849
6.891010
0.006889
0.009894
18.964600
22.572300
11.073300
12.686700
14.427600
0.007939
0.010148
5.697510
0.008920
9.080350
10.711800
8.896060
19.276600
13.248900
6.623110
0.010596
4.908390
0.009480
0.009113
11.112500
9.360220
8.713480
16.039200
1.878090
2.396180
0.011189
5.702230
3.918060
0.009445
0.011210
13.361300
7.519430
7.640330
9.596290
0.009825
0.012041
3.869070
0.013427
3.436050
10.428300
6.765190
8.243540
6.560280
2.630310
3.265290
0.010336
0.015717
0.012959
8.830050
5.228580
5.950610
6.359690
0.018776
0.010665
0.014126
4.807880
5.828670
5.656490
4.560300
0.021659
0.014974
1.343860
2.131360
0.010991
3.323250
4.170920
3.908850
5.904550
2.471570
4.074490
2.695990
2.980060
1.455510
2.755280
3.283710
6.218980
31.960000
20.942000
17.215400
39.688500
25.558300
10.487400
0.010341
0.005887
18.636800
10.925900
36.998400
18.416300
21.559600
32.819100
0.005841
14.080000
9.420590
0.009198
25.660700
16.781400
18.311800
30.189300
13.500700
7.809480
13.478400
0.006114
0.009825
0.008933
24.400800
17.441400
26.830900
14.194300
10.066000
13.985500
27.223400
27.714300
28.904500
18.457800
28.866600
29.771700
23.203200
24.767200
30.668100
32.423800
37.448000
32.529000
37.832100
35.643600
34.040500
39.753300
35.483500
36.726900
31.061600
34.054800
6.010110
35.401900
37.303700
22.061200
14.095900
8.626440
38.900800
40.864400
29.417100
17.172600
18.139000
13.926800
15.008200
15.790100
16.290200
16.561500
15.811200
15.445000
15.070300
14.175300
16.598400
20.079800
18.445100
21.632700
19.856300
20.323400
17.420800
17.549300
19.237300
18.279100
19.150400
20.017900
23.086700
26.925700
9.131450
23.398300
24.630400
18.611300
25.388400
18.997900
40.008400
14.810200
38.440700
35.814200
39.961800
20.210800
18.380000
2.858130
3.432930
3.736250
3.126420
7.567750
4.044310
5.322680
2.413090
2.011220
12.138400
3.320880
2.574640
2.852580
3.813070
3.538330
2.210740
3.131810
1.945840
4.073510
6.306230
4.052890
8.027990
25.760100
15.883300
20.711600
27.156500
29.242600
30.611800
13.950000
21.153700
10.037100
5.794420
13.860900
14.985300
13.116700
12.249400
13.450600
14.687900
13.861800
14.458700
14.280600
14.489300
14.939000
15.334200
16.600400
14.635700
11.015400
15.830000
16.050000
16.555800
17.022900
5.969670
15.321000
34.464300
31.392900
31.069000
18.839700
28.690900
24.691200
26.396300
19.953100
25.276600
13.885500
9.948520
26.763900
29.363200
28.472000
29.289500
30.340700
27.674700
31.363000
28.087000
30.347600
31.242800
32.976900
33.635500
32.441400
31.968600
32.534200
36.330900
19.391700
35.440400
15.882800
34.928800
29.916100
30.425300
40.193700
31.588400
46.814000
41.641500
43.773500
39.040800
45.144100
45.621300
47.236600
48.514200
43.482900
41.752600
48.741600
50.223300
49.568100
56.985200
57.712600
51.789400
53.105700
49.765300
28.776600
21.375600
48.596000
31.402700
44.409900
21.256000
30.127500
0.004807
15.107100
0.008059
22.342900
50.130300
15.144100
29.460800
46.649200
0.007352
25.353100
0.012850
18.271700
25.164500
18.479700
43.493900
46.314000
30.017200
12.089700
18.004100
0.006169
0.011033
0.007973
0.012044
0.010537
0.009677
0.009746
0.016122
0.010348
0.029532
0.014022
0.413049
1.252050
0.738601
0.026062
0.766632
12.886900
16.958500
10.990200
7.813310
6.492000
3.910390
2.920010
1.326950
0.741187
0.709711
0.520515
0.261266
0.159511
0.062419
0.033409
0.152545
0.095118
0.065383
0.078634
0.036332
0.026291
0.196271
0.129728
0.068439
0.046965
0.038293
0.028409
0.124363
0.115607
0.087952
0.061909
0.046872
0.040427
0.148145
0.129086
0.100725
0.075682
0.059960
0.052019
0.121537
0.124427
0.108348
0.085913
0.070024
0.061897
0.125785
0.124830
0.111319
0.092125
0.077232
0.069199
0.115926
0.121033
0.112114
0.095302
0.081531
0.073933
0.115291
0.118500
0.110932
0.096150
0.083353
0.076168
0.109848
0.114370
0.108447
0.094982
0.082928
0.076061
0.106821
0.110006
0.104469
0.091985
0.080386
0.073696
0.100946
0.104041
0.098964
0.087083
0.075746
0.069100
0.094592
0.096628
0.091553
0.080185
0.068950
0.062249
0.085203
0.086850
0.082017
0.071146
0.060005
0.053165
0.073665
0.074664
0.070131
0.060060
0.049046
0.042016
0.059166
0.060159
0.056461
0.047528
0.036829
0.029452
0.044874
0.045967
0.043204
0.035845
0.025822
0.017951
0.039504
0.040515
0.037642
0.031452
0.023366
0.017228
0.050706
0.051201
0.046476
0.039196
0.032824
0.028909
0.070089
0.069808
0.062542
0.052905
0.046361
0.042768
0.087545
0.087182
0.078037
0.066359
0.058905
0.055188
0.098258
0.099316
0.089871
0.076556
0.068742
0.064880
0.104444
0.105922
0.096379
0.082997
0.075154
0.071459
0.104113
0.106684
0.098137
0.085536
0.078324
0.074972
0.098793
0.102768
0.096053
0.084889
0.078675
0.075841
0.091187
0.095992
0.091158
0.081996
0.076876
0.074657
0.082230
0.087829
0.084882
0.077635
0.073713
0.072059
0.073484
0.079541
0.078176
0.072718
0.069809
0.068687
0.065621
0.071965
0.071864
0.067818
0.065761
0.065049
0.059259
0.065666
0.066406
0.063415
0.061953
0.061548
0.054454
0.060825
0.062090
0.059744
0.058659
0.058441
0.051211
0.057460
0.058954
0.056920
0.056000
0.055873
0.049288
0.055395
0.056903
0.054921
0.054006
0.053893
0.048317
0.054337
0.055772
0.053645
0.052638
0.052488
0.048099
0.054065
0.055336
0.052984
0.051822
0.051614
0.048305
0.054341
0.055473
0.052821
0.051494
0.051215
0.048965
0.055116
0.056074
0.053101
0.051593
0.051244
0.050020
0.056369
0.057133
0.053782
0.052085
0.051657
0.051586
0.058158
0.058659
0.054853
0.052935
0.052413
0.053764
0.060558
0.060672
0.056299
0.054105
0.053462
0.056627
0.063616
0.063181
0.058079
0.055537
0.054733
0.060253
0.067347
0.066136
0.060123
0.057130
0.056118
0.064590
0.071670
0.069426
0.062283
0.058741
0.057459
0.069514
0.076377
0.072806
0.064351
0.060142
0.058540
0.074623
0.081060
0.075911
0.065977
0.061057
0.059071
0.079358
0.085050
0.078132
0.066787
0.061089
0.058718
0.082570
0.087432
0.078856
0.066180
0.059871
0.057089
0.083595
0.087177
0.077055
0.063755
0.056966
0.053825
0.080645
0.083113
0.072296
0.059072
0.052098
0.048640
0.072636
0.074591
0.064202
0.052062
0.045290
0.041422
0.061605
0.062518
0.053145
0.043717
0.037035
0.032402
0.047239
0.048201
0.041823
0.036078
0.029151
0.022349
0.035719
0.037264
0.035556
0.033798
0.025097
0.013692
0.037727
0.038587
0.039727
0.039073
0.027991
0.012845
0.047875
0.048104
0.049682
0.048204
0.035073
0.019478
0.059916
0.059388
0.060408
0.057189
0.042035
0.026265
0.065033
0.064479
0.065624
0.063160
0.046692
0.030432
0.068836
0.067319
0.068818
0.065680
0.047289
0.031166
0.056373
0.054892
0.058581
0.061605
0.043258
0.028153
0.056007
0.048821
0.052584
0.053024
0.032760
0.022926
0.077388
0.079669
0.074249
0.050156
0.032544
0.018488
0.320424
0.313351
0.315392
0.201942
0.067556
0.025796
0.931524
0.650221
0.278155
0.139620
0.065105
0.032495
0.343111
0.225393
0.105938
0.082671
0.044485
0.028463
0.058739
0.065477
0.064835
0.051436
0.039525
0.034309
0.063423
0.082875
0.067739
0.050981
0.043323
0.039434
0.069153
0.090522
0.080189
0.060067
0.048205
0.042764
0.083951
0.097421
0.087333
0.067441
0.052998
0.045376
0.082045
0.097860
0.090996
0.072083
0.056599
0.047819
0.086523
0.097891
0.091899
0.074495
0.058940
0.049697
0.095787
0.091240
0.075108
0.059893
0.050615
0.084853
0.093631
0.089288
0.074272
0.059464
0.050272
0.082276
0.090309
0.086338
0.072115
0.057674
0.048563
0.080951
0.086706
0.082372
0.068790
0.054628
0.045552
0.077969
0.082273
0.077585
0.064474
0.050602
0.041553
0.076341
0.077967
0.072230
0.059608
0.046146
0.037257
0.075559
0.074422
0.067272
0.055028
0.042313
0.033952
0.079002
0.074041
0.064244
0.052159
0.040616
0.033303
0.087367
0.078736
0.065399
0.052690
0.042225
0.036247
0.099372
0.088282
0.071234
0.056427
0.046613
0.041419
0.110215
0.098172
0.078303
0.061653
0.051642
0.046796
0.108292
0.100325
0.082461
0.065227
0.055539
0.051040
0.102729
0.099021
0.083985
0.067003
0.058149
0.053903
0.096761
0.096597
0.083658
0.068122
0.059754
0.055923
0.089160
0.093286
0.083342
0.068583
0.061083
0.057528
0.083941
0.090246
0.082459
0.068906
0.062051
0.058915
0.081020
0.087228
0.080518
0.068674
0.062558
0.059863
0.076902
0.082966
0.077649
0.067474
0.062366
0.060127
0.071802
0.077566
0.073669
0.065465
0.061319
0.059611
0.065672
0.071431
0.069099
0.062745
0.059605
0.058373
0.059599
0.065414
0.064424
0.059746
0.057448
0.056643
0.054076
0.060054
0.060220
0.056795
0.055172
0.054681
0.049833
0.055896
0.056796
0.054216
0.053017
0.052740
0.047026
0.053075
0.054333
0.052165
0.051168
0.050997
0.045475
0.051457
0.052805
0.050683
0.049712
0.049562
0.044947
0.050808
0.051994
0.049732
0.048655
0.048476
0.044792
0.050677
0.051748
0.049194
0.047978
0.047741
0.045045
0.050982
0.051861
0.049020
0.047634
0.047339
0.045428
0.051576
0.052332
0.049147
0.047601
0.047240
0.046184
0.052558
0.053141
0.049577
0.047846
0.047418
0.047352
0.054002
0.054325
0.050290
0.048342
0.047829
0.049048
0.055969
0.055910
0.051264
0.049046
0.048423
0.051331
0.058511
0.057880
0.052459
0.049892
0.049125
0.054172
0.061599
0.060195
0.053792
0.050795
0.049837
0.057505
0.065153
0.062744
0.055158
0.051634
0.050445
0.061125
0.068987
0.065368
0.056397
0.052283
0.050814
0.064862
0.072854
0.067812
0.057364
0.052594
0.050826
0.068415
0.076430
0.069858
0.057864
0.052490
0.050382
0.071974
0.079493
0.071174
0.057910
0.051882
0.049461
0.075447
0.081913
0.071934
0.057386
0.050843
0.048075
0.080463
0.084177
0.071795
0.056471
0.049448
0.046240
0.086758
0.086071
0.070886
0.055447
0.047634
0.043916
0.090481
0.086244
0.069733
0.053921
0.045466
0.040828
0.092479
0.084710
0.066998
0.052387
0.042588
0.036668
0.090740
0.080140
0.062909
0.050469
0.039303
0.031039
0.079070
0.069929
0.057965
0.048955
0.036050
0.024086
0.066130
0.060161
0.054781
0.049499
0.034190
0.016672
0.052488
0.051525
0.053725
0.051942
0.034794
0.011621
0.041376
0.045812
0.054766
0.055799
0.037655
0.014276
0.028686
0.039359
0.055020
0.060383
0.042222
0.022697
0.038930
0.045005
0.059850
0.066786
0.048162
0.032157
0.090116
0.092915
0.091276
0.083735
0.055915
0.037900
0.227719
0.223566
0.212550
0.141699
0.064888
0.034830
0.371348
0.359276
0.357576
0.244620
0.075584
0.029485
0.828427
0.627841
0.301362
0.138118
0.066902
0.038269
0.508600
0.347306
0.170387
0.102557
0.064864
0.039073
0.252149
0.188319
0.124738
0.085630
0.060761
0.048968
0.083553
0.114051
0.100084
0.073361
0.058942
0.051877
0.050903
0.097349
0.089604
0.068594
0.055718
0.049280
0.045696
0.089040
0.086152
0.066381
0.051877
0.044062
0.052463
0.085902
0.083965
0.064988
0.048490
0.038494
0.055282
0.083225
0.082063
0.063700
0.045780
0.033811
0.059517
0.081288
0.079990
0.062380
0.043717
0.030328
0.061022
0.079297
0.077868
0.060960
0.042122
0.027976
0.064013
0.077889
0.075760
0.059556
0.040963
0.026703
0.066360
0.076933
0.073962
0.058385
0.040461
0.026800
0.071357
0.077435
0.072836
0.057891
0.041091
0.028803
0.078335
0.080002
0.073173
0.058663
0.043426
0.033065
0.090079
0.086236
0.075779
0.061352
0.047771
0.039362
0.106204
0.096826
0.081644
0.066248
0.053800
0.046876
0.126269
0.111791
0.090523
0.072556
0.060456
0.054163
0.146587
0.128449
0.100825
0.079120
0.065905
0.059770
0.158062
0.140627
0.109825
0.083086
0.068752
0.062394
0.148110
0.134509
0.106137
0.080688
0.067681
0.061690
0.129938
0.122014
0.097776
0.075338
0.063810
0.058657
0.105694
0.106879
0.089828
0.068793
0.059398
0.054767
0.089808
0.095346
0.082352
0.063919
0.055514
0.051610
0.080772
0.087609
0.076677