# vtk DataFile Version 2.0
test
ASCII
DATASET UNSTRUCTURED_GRID
POINTS 41454 float
0.750000 -0.500000 0.050000
0.750000 0.440000 0.050000
0.772940 -0.514035 0.050000
0.781020 -0.499414 0.050000
0.797479 -0.483735 0.050000
0.803992 -0.466642 0.050000
0.810645 -0.448494 0.050000
0.814531 -0.430942 0.050000
0.817875 -0.412853 0.050000
0.819990 -0.395057 0.050000
0.821456 -0.376997 0.050000
0.822072 -0.359080 0.050000
0.821994 -0.341048 0.050000
0.821152 -0.323165 0.050000
0.819575 -0.305304 0.050000
0.817251 -0.287715 0.050000
0.814197 -0.270347 0.050000
0.810504 -0.253500 0.050000
0.806302 -0.237134 0.050000
0.801866 -0.221535 0.050000
0.797542 -0.206512 0.050000
0.793543 -0.191990 0.050000
0.790229 -0.177854 0.050000
0.787506 -0.163618 0.050000
0.785429 -0.149495 0.050000
0.783880 -0.135055 0.050000
0.782692 -0.120460 0.050000
0.781757 -0.105603 0.050000
0.780957 -0.090569 0.050000
0.780225 -0.075370 0.050000
0.779513 -0.060064 0.050000
0.778798 -0.044679 0.050000
0.778068 -0.029243 0.050000
0.777317 -0.013777 0.050000
0.776544 0.001704 0.050000
0.775748 0.017189 0.050000
0.774931 0.032667 0.050000
0.774093 0.048131 0.050000
0.773238 0.063565 0.050000
0.772368 0.078964 0.050000
0.771491 0.094309 0.050000
0.770614 0.109589 0.050000
0.769755 0.124774 0.050000
0.768935 0.139853 0.050000
0.768191 0.154782 0.050000
0.767575 0.169546 0.050000
0.767150 0.184114 0.050000
0.767024 0.198458 0.050000
0.767272 0.212631 0.050000
0.768030 0.226584 0.050000
0.769397 0.240481 0.050000
0.771408 0.254443 0.050000
0.774005 0.268596 0.050000
0.777118 0.283222 0.050000
0.780379 0.298577 0.050000
0.783331 0.314732 0.050000
0.785575 0.331700 0.050000
0.786566 0.349285 0.050000
0.786264 0.367061 0.050000
0.783997 0.385059 0.050000
0.780330 0.402257 0.050000
0.773115 0.419123 0.050000
0.766483 0.432862 0.050000
-0.750000 0.440000 0.050000
0.733871 0.440000 0.050000
0.717742 0.440000 0.050000
0.701613 0.440000 0.050000
0.685484 0.440000 0.050000
0.669355 0.440000 0.050000
0.653226 0.440000 0.050000
0.637097 0.440000 0.050000
0.620968 0.440000 0.050000
0.604839 0.440000 0.050000
0.588710 0.440000 0.050000
0.572581 0.440000 0.050000
0.556452 0.440000 0.050000
0.540323 0.440000 0.050000
0.524194 0.440000 0.050000
0.508065 0.440000 0.050000
0.491935 0.440000 0.050000
0.475807 0.440000 0.050000
0.459677 0.440000 0.050000
0.443548 0.440000 0.050000
0.427419 0.440000 0.050000
0.411290 0.440000 0.050000
0.395161 0.440000 0.050000
0.379032 0.440000 0.050000
0.362903 0.440000 0.050000
0.346774 0.440000 0.050000
0.330645 0.440000 0.050000
0.314516 0.440000 0.050000
0.298387 0.440000 0.050000
0.282258 0.440000 0.050000
0.266129 0.440000 0.050000
0.250000 0.440000 0.050000
0.233871 0.440000 0.050000
0.217742 0.440000 0.050000
0.201613 0.440000 0.050000
0.185484 0.440000 0.050000
0.169355 0.440000 0.050000
0.153226 0.440000 0.050000
0.137097 0.440000 0.050000
0.120968 0.440000 0.050000
0.104839 0.440000 0.050000
0.088710 0.440000 0.050000
0.072581 0.440000 0.050000
0.056452 0.440000 0.050000
0.040323 0.440000 0.050000
0.024194 0.440000 0.050000
0.008065 0.440000 0.050000
-0.008065 0.440000 0.050000
-0.024194 0.440000 0.050000
-0.040323 0.440000 0.050000
-0.056452 0.440000 0.050000
-0.072581 0.440000 0.050000
-0.088710 0.440000 0.050000
-0.104839 0.440000 0.050000
-0.120968 0.440000 0.050000
-0.137097 0.440000 0.050000
-0.153226 0.440000 0.050000
-0.169355 0.440000 0.050000
-0.185484 0.440000 0.050000
-0.201613 0.440000 0.050000
-0.217742 0.440000 0.050000
-0.233871 0.440000 0.050000
-0.250000 0.440000 0.050000
-0.266129 0.440000 0.050000
-0.282258 0.440000 0.050000
-0.298387 0.440000 0.050000
-0.314516 0.440000 0.050000
-0.330645 0.440000 0.050000
-0.346774 0.440000 0.050000
-0.362903 0.440000 0.050000
-0.379032 0.440000 0.050000
-0.395161 0.440000 0.050000
-0.411290 0.440000 0.050000
-0.427419 0.440000 0.050000
-0.443548 0.440000 0.050000
-0.459677 0.440000 0.050000
-0.475807 0.440000 0.050000
-0.491935 0.440000 0.050000
-0.508065 0.440000 0.050000
-0.524194 0.440000 0.050000
-0.540323 0.440000 0.050000
-0.556452 0.440000 0.050000
-0.572581 0.440000 0.050000
-0.588710 0.440000 0.050000
-0.604839 0.440000 0.050000
-0.620968 0.440000 0.050000
-0.637097 0.440000 0.050000
-0.653226 0.440000 0.050000
-0.669355 0.440000 0.050000
-0.685484 0.440000 0.050000
-0.701613 0.440000 0.050000
-0.717742 0.440000 0.050000
-0.733871 0.440000 0.050000
-0.750000 -0.500000 0.050000
-0.764917 0.431275 0.050000
-0.771198 0.417442 0.050000
-0.777958 0.400483 0.050000
-0.781590 0.383318 0.050000
-0.783956 0.365253 0.050000
-0.784546 0.347516 0.050000
-0.783986 0.329765 0.050000
-0.782331 0.312709 0.050000
-0.780020 0.296083 0.050000
-0.777304 0.280288 0.050000
-0.774610 0.264997 0.050000
-0.772069 0.250185 0.050000
-0.769950 0.235718 0.050000
-0.768250 0.221318 0.050000
-0.766992 0.207011 0.050000
-0.766141 0.192611 0.050000
-0.765618 0.178123 0.050000
-0.765354 0.163502 0.050000
-0.765287 0.148765 0.050000
-0.765362 0.133912 0.050000
-0.765540 0.118970 0.050000
-0.765794 0.103946 0.050000
-0.766104 0.088871 0.050000
-0.766457 0.073745 0.050000
-0.766846 0.058599 0.050000
-0.767264 0.043421 0.050000
-0.767707 0.028245 0.050000
-0.768168 0.013049 0.050000
-0.768637 -0.002126 0.050000
-0.769110 -0.017294 0.050000
-0.769578 -0.032411 0.050000
-0.770048 -0.047464 0.050000
-0.770535 -0.062407 0.050000
-0.771075 -0.077207 0.050000
-0.771724 -0.091823 0.050000
-0.772558 -0.106224 0.050000
-0.773678 -0.120380 0.050000
-0.775192 -0.134317 0.050000
-0.777246 -0.147989 0.050000
-0.779926 -0.161639 0.050000
-0.783281 -0.175095 0.050000
-0.787407 -0.188835 0.050000
-0.792067 -0.202828 0.050000
-0.797206 -0.217335 0.050000
-0.802494 -0.232578 0.050000
-0.807614 -0.248517 0.050000
-0.812346 -0.265196 0.050000
-0.816443 -0.282440 0.050000
-0.819828 -0.300166 0.050000
-0.822374 -0.318260 0.050000
-0.824098 -0.336576 0.050000
-0.824886 -0.355126 0.050000
-0.824843 -0.373673 0.050000
-0.823711 -0.392438 0.050000
-0.821793 -0.410951 0.050000
-0.818295 -0.429829 0.050000
-0.814214 -0.448060 0.050000
-0.806709 -0.466899 0.050000
-0.799697 -0.484479 0.050000
-0.781612 -0.500039 0.050000
-0.773071 -0.515416 0.050000
-0.733871 -0.500000 0.050000
-0.717742 -0.500000 0.050000
-0.701613 -0.500000 0.050000
-0.685484 -0.500000 0.050000
-0.669355 -0.500000 0.050000
-0.653226 -0.500000 0.050000
-0.637097 -0.500000 0.050000
-0.620968 -0.500000 0.050000
-0.604839 -0.500000 0.050000
-0.588710 -0.500000 0.050000
-0.572581 -0.500000 0.050000
-0.556452 -0.500000 0.050000
-0.540323 -0.500000 0.050000
-0.524194 -0.500000 0.050000
-0.508065 -0.500000 0.050000
-0.491935 -0.500000 0.050000
-0.475807 -0.500000 0.050000
-0.459677 -0.500000 0.050000
-0.443548 -0.500000 0.050000
-0.427419 -0.500000 0.050000
-0.411290 -0.500000 0.050000
-0.395161 -0.500000 0.050000
-0.379032 -0.500000 0.050000
-0.362903 -0.500000 0.050000
-0.346774 -0.500000 0.050000
-0.330645 -0.500000 0.050000
-0.314516 -0.500000 0.050000
-0.298387 -0.500000 0.050000
-0.282258 -0.500000 0.050000
-0.266129 -0.500000 0.050000
-0.250000 -0.500000 0.050000
-0.233871 -0.500000 0.050000
-0.217742 -0.500000 0.050000
-0.201613 -0.500000 0.050000
-0.185484 -0.500000 0.050000
-0.169355 -0.500000 0.050000
-0.153226 -0.500000 0.050000
-0.137097 -0.500000 0.050000
-0.120968 -0.500000 0.050000
-0.104839 -0.500000 0.050000
-0.088710 -0.500000 0.050000
-0.072581 -0.500000 0.050000
-0.056452 -0.500000 0.050000
-0.040323 -0.500000 0.050000
-0.024194 -0.500000 0.050000
-0.008065 -0.500000 0.050000
0.008065 -0.500000 0.050000
0.024194 -0.500000 0.050000
0.040323 -0.500000 0.050000
0.056452 -0.500000 0.050000
0.072581 -0.500000 0.050000
0.088710 -0.500000 0.050000
0.104839 -0.500000 0.050000
0.120968 -0.500000 0.050000
0.137097 -0.500000 0.050000
0.153226 -0.500000 0.050000
0.169355 -0.500000 0.050000
0.185484 -0.500000 0.050000
0.201613 -0.500000 0.050000
0.217742 -0.500000 0.050000
0.233871 -0.500000 0.050000
0.250000 -0.500000 0.050000
0.266129 -0.500000 0.050000
0.282258 -0.500000 0.050000
0.298387 -0.500000 0.050000
0.314516 -0.500000 0.050000
0.330645 -0.500000 0.050000
0.346774 -0.500000 0.050000
0.362903 -0.500000 0.050000
0.379032 -0.500000 0.050000
0.395161 -0.500000 0.050000
0.411290 -0.500000 0.050000
0.427419 -0.500000 0.050000
0.443548 -0.500000 0.050000
0.459677 -0.500000 0.050000
0.475807 -0.500000 0.050000
0.491935 -0.500000 0.050000
0.508065 -0.500000 0.050000
0.524194 -0.500000 0.050000
0.540323 -0.500000 0.050000
0.556452 -0.500000 0.050000
0.572581 -0.500000 0.050000
0.588710 -0.500000 0.050000
0.604839 -0.500000 0.050000
0.620968 -0.500000 0.050000
0.637097 -0.500000 0.050000
0.653226 -0.500000 0.050000
0.669355 -0.500000 0.050000
0.685484 -0.500000 0.050000
0.701613 -0.500000 0.050000
0.717742 -0.500000 0.050000
0.733871 -0.500000 0.050000
0.762611 -0.489298 0.050000
0.775594 -0.488019 0.050000
0.783709 -0.475295 0.050000
0.791593 -0.460504 0.050000
0.796212 -0.444265 0.050000
0.800470 -0.427454 0.050000
0.803226 -0.410524 0.050000
0.805440 -0.393260 0.050000
0.806725 -0.376017 0.050000
0.807376 -0.358598 0.050000
0.807247 -0.341251 0.050000
0.806415 -0.323852 0.050000
0.804810 -0.306623 0.050000
0.802437 -0.289485 0.050000
0.799270 -0.272699 0.050000
0.795351 -0.256207 0.050000
0.790784 -0.240326 0.050000
0.785841 -0.224884 0.050000
0.780888 -0.210040 0.050000
0.776472 -0.195498 0.050000
0.772734 -0.180921 0.050000
0.769884 -0.166524 0.050000
0.767815 -0.151779 0.050000
0.766364 -0.137007 0.050000
0.765344 -0.122019 0.050000
0.764570 -0.106924 0.050000
0.763913 -0.091695 0.050000
0.763287 -0.076385 0.050000
0.762653 -0.061003 0.050000
0.761991 -0.045577 0.050000
0.761295 -0.030117 0.050000
0.760565 -0.014639 0.050000
0.759800 0.000848 0.050000
0.759003 0.016336 0.050000
0.758175 0.031818 0.050000
0.757318 0.047284 0.050000
0.756431 0.062729 0.050000
0.755519 0.078141 0.050000
0.754583 0.093516 0.050000
0.753631 0.108834 0.050000
0.752672 0.124093 0.050000
0.751726 0.139264 0.050000
0.750824 0.154350 0.050000
0.750018 0.169315 0.050000
[...]
CELL_DATA 34596
SCALARS Mises_Stress_Abs(MPa) float 1
LOOKUP_TABLE default
77.826200
81.965100
58.244600
70.173100
75.843300
70.746600
76.804500
74.584400
51.279900
78.459100
20.154200
67.304200
37.214600
9.201420
3.144680
1.611270
1.281710
0.535412
28.632100
0.287782
3.388520
13.963500
42.596800
2.587120
1.980960
1.970480
1.002660
0.500603
42.288500
24.265300
37.579300
12.032500
16.668800
19.422200
29.891800
34.448900
27.068500
18.266700
29.369200
19.531800
30.910200
36.358100
41.188500
45.417200
21.175500
30.416200
2.149430
2.724170
1.868800
2.033710
0.982483
36.679000
42.426800
35.812100
28.180300
22.540000
37.958000
44.634500
38.427600
40.596700
40.617600
37.088900
39.344700
12.583200
35.725000
40.494400
12.684000
31.989000
26.107000
1.487300
2.504300
2.764840
2.633220
2.138630
36.655900
25.947200
43.755400
86.149900
28.091400
27.315100
93.619600
89.312500
28.620000
40.139800
100.282000
30.867500
25.713200
93.683200
95.451000
47.633900
94.619000
92.163500
2.579080
3.410480
2.605190
3.089300
2.893440
19.539400
23.062100
35.175600
30.825000
45.933500
52.816400
24.100500
22.561100
36.061900
20.809600
3.471320
3.915130
3.201080
3.316090
21.735200
17.141400
15.890400
7.044240
9.094720
30.339100
18.838800
25.380900
3.009570
32.146000
28.577000
36.594000
23.836400
33.789400
20.328000
14.934600
4.507290
3.591500
3.533560
4.130970
4.616060
16.666500
21.253100
24.473600
22.461000
14.779600
21.892100
19.322300
19.113000
16.318200
19.154700
4.461260
5.446670
4.917980
4.207300
4.207670
17.552000
18.647300
13.812500
20.411000
18.260600
10.196100
14.663500
19.532200
25.644300
16.687400
4.838740
6.774520
4.344970
5.296730
5.782400
10.138200
15.573300
16.518200
18.180100
13.024000
4.826500
6.069190
7.008960
7.030850
5.350790
6.727220
18.008400
19.976500
17.379900
6.895290
12.505800
14.069700
12.428700
19.191200
9.341950
7.169510
6.624420
6.449060
9.356880
5.201140
13.528600
18.049000
20.316700
17.087900
11.953400
13.087600
10.406700
11.715000
8.727310
13.874000
7.218820
8.062490
8.572000
5.610240
18.015200
8.958600
15.469400
19.261800
17.682700
21.080300
10.546200
9.554810
13.384200
7.931510
10.067100
5.953880
8.525590
9.103190
9.932360
20.098400
12.377100
24.260400
21.795100
28.176300
18.603600
8.444250
9.489570
9.778430
7.461720
8.312150
9.839990
12.126800
10.787500
10.323300
9.912780
25.657000
26.097900
20.536800
23.499100
8.456540
6.904850
31.905100
7.766490
6.505540
7.796060
21.246000
13.180400
9.676990
18.724700
14.217900
41.060400
23.875300
22.966100
38.733600
33.470400
6.312180
6.042470
5.674300
5.821010
6.960850
32.577800
14.592900
14.559700
15.262100
25.587900
41.736200
16.834500
27.834600
51.029100
29.482100
4.658530
5.686460
5.039340
4.653160
5.475880
35.521000
69.277100
20.643400
62.216800
70.492500
17.081400
20.114700
62.600800
63.589600
27.334400
24.042200
30.053300
73.978600
35.512800
70.512500
27.430000
39.782800
4.454810
3.803840
4.465040
4.560420
2.711610
20.032000
40.737400
35.764300
16.167100
22.350600
26.934100
34.274400
39.669900
38.940000
15.616100
30.610800
25.137100
26.192300
35.312200
36.681100
31.271300
34.223600
3.713990
1.981780
2.932320
3.500070
3.557530
19.686000
28.997500
18.913400
23.695700
16.613100
5.009230
28.481100
38.007700
7.831520
23.601100
22.762400
9.505970
38.989900
5.257130
16.584400
30.878400
9.612860
0.903445
2.138150
2.882100
2.801460
2.547380
24.575200
15.828000
21.801400
21.951700
25.819400
24.847400
29.359900
26.107900
25.791800
25.733100
11.733500
25.786100
29.580400
35.298400
33.444600
26.441700
32.524600
0.659318
2.572170
1.355670
1.793420
2.036660
8.772110
54.390500
16.506900
53.032600
40.972700
34.213600
23.265400
47.081800
57.421300
52.082200
57.908900
11.598700
44.821800
22.125900
36.254600
4.067550
52.161700
2.032920
1.443700
0.917184
2.190140
0.638617
0.064295
9.294270
15.579800
4.830600
5.498280
13.159900
9.396250
8.262290
4.642470
7.610170
4.513290
5.539290
3.605090
3.389430
6.604750
5.584230
3.221170
4.704860
3.147560
3.660080
3.532950
13.073400
14.093100
10.185500
12.550600
10.526000
10.867300
9.204380
10.945800
13.374200
7.423200
3.681620
9.043360
13.525400
4.957950
2.809940
3.701720
10.338100
7.044880
12.518700
12.038900
12.966100
6.083940
6.248740
3.768140
6.117510
3.765520
5.617910
4.231160
5.569070
5.133760
6.874520
7.425030
6.532000
1.712820
4.418810
3.086360
2.804410
4.456960
3.738220
3.563040
4.081270
2.765270
3.609720
6.599700
3.737870
4.300250
4.448700
4.903850
4.466290
7.546620
5.543950
5.232500
6.810750
5.433300
6.603150
6.387650
4.108750
2.104820
10.054500
7.852440
8.553340
8.690250
6.781240
8.966920
8.956780
9.735340
4.305060
11.024700
7.614070
9.300550
10.239800
5.219920
9.781710
7.515830
9.710060
7.697730
9.414360
8.354510
8.851670
6.510240
10.489400
8.834510
9.821840
7.999570
9.533630
7.747670
6.855080
2.829840
5.605570
7.487550
18.601200
18.879200
8.496330
11.310700
8.998710
14.015000
11.777100
15.957800
23.152300
21.743200
22.029400
16.674900
19.299900
16.163300
13.265300
14.146300
15.325200
21.528000
7.146740
8.280670
7.339420
9.798220
4.601760
4.492380
9.549390
12.379300
14.185700
16.178800
18.250700
5.337500
5.909310
0.002995
0.001623
13.174800
11.142700
9.538350
10.901600
10.361300
14.487600
4.171570
0.005510
0.010480
4.512040
13.605000
6.342210
0.002877
14.694000
0.005234
1.822130
2.370760
7.815030
5.016990
3.549600
0.009358
2.331480
8.014740
14.854600
6.194850
0.018925
7.512010
14.764200
3.304150
0.003045
5.544010
0.004496
2.271430
5.065680
1.618410
0.860986
14.440100
0.008146
7.113920
8.712750
0.016972
15.723400
7.031750
0.003116
2.136220
5.080300
5.463930
0.004051
1.784860
2.694650
0.008089
0.789691
8.671180
14.766000
0.016489
6.737260
0.003022
0.004169
15.350400
7.497560
6.268420
8.041760
3.393840
9.783540
10.901000
0.003005
0.016180
14.077000
0.007877
6.893440
2.320570
7.802940
7.087890
15.255100
5.650750
0.005111
0.003100
0.002005
13.949700
19.873500
18.678700
0.015968
12.944700
0.007823
6.992230
7.500650
2.542800
7.365540
14.226300
0.007917
0.001637
0.004891
0.007500
15.670900
20.458100
13.840900
0.015885
14.852700
24.416000
4.276770
6.595510
0.007782
5.429490
11.938500
13.101500
6.984440
9.833300
0.007720
0.005533
0.002241
8.917230
0.009665
0.015832
9.270960
17.804600
23.000200
0.002461
0.007774
9.419980
7.101070
4.630750
5.050690
11.428200
7.131800
22.315600
0.004257
0.009574
2.324200
9.272710
35.551400
24.315300
32.655500
0.015602
17.232500
8.470610
9.618890
0.007625
6.141120
3.111820
6.456890
6.709690
6.526650
9.594080
0.004547
22.368500
15.981600
15.991800
8.742180
15.133300
4.627120
8.062480
1.542680
0.015600
0.002981
7.892490
0.007366
2.965910
7.219910
12.121000
16.438000
11.721200
7.616690
11.786700
16.298100
16.407800
12.750700
6.006190
7.085980
2.701150
5.805550
1.504720
5.169070
3.139800
1.345860
6.578800
6.419740
0.003735
0.007939
8.180540
10.563000
16.178800
5.528100
11.092100
9.044800
16.128700
11.395500
11.710200
17.391200
12.973500
17.365800
18.977400
9.702440
2.172070
18.913300
17.710600
11.520100
17.590300
5.574690
18.065900
22.434800
9.647740
6.443160
19.916100
8.939000
17.447600
17.760800
20.503400
27.662000
6.670510
29.049500
12.557400
9.258090
8.843580
11.166300
7.080830
7.977610
1.856450
9.858930
8.389950
9.842210
8.287300
5.731900
6.332760
6.204600
9.122480
10.132700
12.651100
10.977200
8.931430
8.091710
8.683590
4.247450
5.394460
0.012782
2.558920
8.887530
7.397840
5.315680
20.013200
23.415600
25.587000
15.624800
22.636300
13.867200
16.113000
2.659910
10.002100
4.768980
10.740800
12.457600
6.412680
5.085460
7.789400
8.563770
7.878160
3.213700
4.111710
8.996710
3.676140
9.978010
2.689990
6.138710
10.416500
5.502350
6.538310
12.915600
17.924200
4.936570
11.327600
8.741190
8.520350
7.446790
13.234800
17.813400
17.327300
7.366850
6.081040
8.992340
9.103660
11.693200
8.541840
14.042700
10.382000
9.313540
6.941430
10.669300
7.833330
4.055030
9.186900
5.077350
9.894220
8.975480
11.498800
4.782030
5.960930
3.014050
5.508240
8.229020
4.401240
12.658700
4.648070
10.213500
10.353400
2.419880
8.260400
5.663210
3.744350
7.807560
5.501580
3.282950
4.882780
7.725290
7.013670
3.819230
4.560740
10.054600
5.779110
2.920840
4.988530
3.260480
5.909270
3.604940
5.781200
6.875170
4.300400
4.494520
2.319520
7.403460
3.314050
5.160550
7.151680
7.680410
4.725570
2.941830
3.523060
2.740000
4.935750
5.980470
3.341610
3.261910
4.021760
4.881780
4.843090
4.118760
5.449790
3.348900
3.777900
1.983460
2.913650
3.900260
1.860820
1.252900
4.318940
1.741940
2.000580
2.082140
1.893050
0.744627
2.403280
4.278810
2.913100
2.850330
2.324500
1.682010
1.312430
3.063130
5.270490
1.771620
4.426320
4.761800
4.459470
2.901700
1.072130
0.926074
2.080260
2.956630
1.235390
5.281850
7.343840
17.433300
1.980500
2.800460
2.102700
4.404780
5.687610
9.086940
4.891030
10.982300
8.623000
0.007504
5.876470
0.006031
0.008413
15.650200
18.765100
9.215310
10.484000
12.024600
0.006984
0.008638
4.863830
0.007559
7.762440
8.844650
7.389070
16.036600
11.030800
5.669330
0.009017
4.192630
0.008324
0.007709
9.251170
7.719060
7.237070
13.329100
1.615740
2.043400
0.009823
4.884190
3.350650
0.007954
0.009531
11.118000
6.225610
6.294270
7.985310
0.008235
0.010200
3.316660
0.011709
2.937460
8.670940
5.560660
6.851130
5.439250
2.255680
2.802600
0.008574
0.013686
0.010941
7.355840
4.302320
4.900020
5.296010
0.016175
0.008769
0.011811
3.924380
4.863300
4.684540
3.780600
0.018620
0.012460
1.159280
1.826450
0.008861
2.789590
3.388640
3.222230
4.921420
2.010790
3.349360
2.261920
2.411140
1.194960
2.280790
2.654870
5.161210
26.478800
17.356300
14.367800
33.049800
21.335400
8.936570
0.008730
0.005011
15.888900
9.109810
30.813100
15.268600
17.980100
27.194000
0.005022
12.024000
8.022350
0.007781
21.224200
13.890300
15.275300
25.115300
11.254000
6.659810
11.504100
0.005314
0.008338
0.007569
20.183700
14.533300
22.329300
11.744900
8.378530
11.969200
23.120700
23.595600
24.553800
15.719000
24.467800
25.231300
19.799500
21.068800
25.941500
27.371200
31.413200
27.446300
31.691400
29.953300
28.679100
33.293700
29.837400
30.824800
26.265100
28.674300
4.943650
29.561500
31.160400
18.414100
11.745400
7.211070
32.525500
34.123100
24.521800
14.620100
15.367900
11.828800
12.773100
13.460400
13.829200
13.987700
13.385000
13.073800
12.790500
12.025600
14.018100
16.781900
15.512300
18.083800
16.628300
16.971600
14.679700
14.790100
16.144700
15.371100
16.074900
16.777500
19.266700
22.461100
7.691590
19.542000
20.584300
15.445500
21.195700
16.141800
33.959500
12.584800
32.685800
30.388800
33.864100
17.163300
15.563200
2.331340
2.816380
3.078670
2.552140
6.366870
3.350510
4.499780
1.956470
1.615580
10.313600
2.708730
2.092240
2.322490
3.103860
2.883160
1.792770
2.558350
1.579970
3.312020
5.237510
3.297060
6.717780
21.511700
13.286100
17.293100
22.676300
24.424500
25.498700
11.840100
17.929900
8.454670
4.849610
11.682500
12.595000
11.084800
10.376300
11.350700
12.356400
11.691900
12.188000
12.022400
12.201100
12.549400
12.875500
13.909200
12.307600
9.248390
13.277100
13.450300
13.868400
14.224300
4.974650
12.857100
28.765500
26.176300
25.909300
15.760000
23.987400
20.978800
22.359400
16.983900
21.419200
11.760900
8.439670
22.645800
24.773400
24.055200
24.711200
25.561500
23.413400
26.384700
23.731000
25.567500
26.285400
27.630900
28.214800
27.252000
26.860500
27.300000
30.350600
16.183500
29.658500
13.202400
29.262500
24.983200
25.416300
33.529400
26.350000
39.426600
35.226400
36.971900
33.077300
38.080500
38.472500
39.774300
40.793600
36.736700
35.328800
40.820400
42.165300
41.618300
47.647500
48.203000
43.418100
44.464800
41.729000
24.007300
17.881900
40.859200
26.202400
37.057300
17.792800
25.656700
0.004062
12.830000
0.006794
18.684200
41.676700
12.691800
24.610300
38.883100
0.006198
21.599100
0.010823
15.554200
21.004900
15.469000
36.098400
38.605200
24.974400
10.284700
15.357700
0.005222
0.009291
0.006700
0.010152
0.008884
0.008169
0.008882
0.013046
0.008309
0.024640
0.012085
0.338994
1.069130
0.632599
0.021942
0.655637
10.603500
13.999100
9.051740
6.406280
5.331680
3.200350
2.386550
1.095230
0.603709
0.623932
0.425686
0.206176
0.121915
0.046503
0.027284
0.093836
0.045974
0.047206
0.065450
0.027348
0.020486
0.134353
0.088072
0.048389
0.035548
0.027921
0.021494
0.087972
0.090273
0.069077
0.047744
0.036239
0.031087
0.110095
0.103682
0.082408
0.060849
0.047479
0.040781
0.093317
0.101940
0.089618
0.070131
0.056319
0.049082
0.097112
0.102347
0.092566
0.075746
0.062543
0.055314
0.091121
0.099664
0.093368
0.078635
0.066320
0.059398
0.091067
0.097634
0.092501
0.079496
0.067967
0.061387
0.087636
0.094415
0.090468
0.078620
0.067708
0.061380
0.085566
0.090878
0.087183
0.076175
0.065633
0.059444
0.081272
0.086019
0.082575
0.072096
0.061762
0.055583
0.076253
0.079846
0.076326
0.066302
0.056040
0.049780
0.068650
0.071629
0.068242
0.058678
0.048489
0.042058
0.059071
0.061322
0.058164
0.049359
0.039281
0.032601
0.047119
0.049186
0.046738
0.039027
0.029254
0.022131
0.036138
0.038043
0.036325
0.030106
0.021171
0.013734
0.034755
0.035872
0.033612
0.028420
0.021622
0.016549
0.046775
0.046988
0.042742
0.036435
0.030987
0.027684
0.064349
0.063694
0.057031
0.048536
0.042814
0.039690
0.079498
0.078714
0.070319
0.060031
0.053488
0.050227
0.088492
0.088883
0.080231
0.068568
0.061721
0.058333
0.093214
0.094037
0.085412
0.073786
0.066955
0.063722
0.092221
0.094089
0.086478
0.075621
0.069380
0.066460
0.087090
0.090187
0.084265
0.074734
0.069390
0.066932
0.080087
0.083937
0.079704
0.071950
0.067578
0.065660
0.072012
0.076586
0.074036
0.067948
0.064623
0.063201
0.064225
0.069203
0.068039
0.063505
0.061060
0.060102
0.057240
0.062475
0.062416
0.059101
0.057396
0.056795
0.051580
0.056872
0.057545
0.055144
0.053958
0.053625
0.047282
0.052544
0.053673
0.051832
0.050977
0.050808
0.044351
0.049507
0.050835
0.049266
0.048558
0.048469
0.042587
0.047614
0.048949
0.047426
0.046724
0.046650
0.041661
0.046607
0.047873
0.046224
0.045444
0.045338
0.041402
0.046292
0.047409
0.045565
0.044651
0.044495
0.041509
0.046452
0.047446
0.045344
0.044289
0.044072
0.042006
0.047041
0.047887
0.045513
0.044304
0.044026
0.042837
0.048037
0.048723
0.046034
0.044664
0.044320
0.044102
0.049491
0.049962
0.046896
0.045341
0.044918
0.045892
0.051470
0.051624
0.048090
0.046303
0.045780
0.048274
0.054019
0.053722
0.049582
0.047504
0.046845
0.051327
0.057163
0.056218
0.051319
0.048860
0.048024
0.055017
0.060844
0.059033
0.053180
0.050253
0.049186
0.059270
0.064907
0.061964
0.054997
0.051492
0.050148
0.063753
0.069025
0.064723
0.056474
0.052344
0.050663
0.068043
0.072647
0.066787
0.057296
0.052471
0.050443
0.071115
0.074987
0.067647
0.056947
0.051546
0.049149
0.072374
0.075145
0.066401
0.055055
0.049189
0.046459
0.070326
0.072070
0.062606
0.051226
0.045141
0.042118
0.063767
0.065064
0.055907
0.045360
0.039405
0.036017
0.054352
0.054797
0.046538
0.038271
0.032386
0.028345
0.041819
0.042381
0.036792
0.031685
0.025602
0.019736
0.031101
0.032438
0.031078
0.029497
0.021930
0.012120
0.031538
0.032624
0.034073
0.033676
0.024060
0.010682
0.039548
0.040268
0.042302
0.041290
0.029863
0.015946
0.049282
0.049445
0.051140
0.048828
0.035666
0.021577
0.053405
0.053541
0.055445
0.053850
0.039515
0.025007
0.055393
0.054760
0.057293
0.055762
0.039909
0.025536
0.044717
0.043910
0.048565
0.052508
0.036420
0.022955
0.042839
0.036894
0.041086
0.045546
0.027667
0.018670
0.076414
0.077960
0.071865
0.049079
0.028698
0.014827
0.264527
0.259884
0.264945
0.174183
0.054443
0.021165
0.776542
0.530852
0.217011
0.108109
0.051452
0.026411
0.331882
0.212947
0.100700
0.070709
0.037195
0.022746
0.081946
0.080430
0.064985
0.046586
0.034300
0.028472
0.046146
0.077635
0.062899
0.045307
0.036978
0.033029
0.048304
0.079424
0.070174
0.051400
0.040384
0.035130
0.060610
0.082187
0.074799
0.056700
0.043518
0.036375
0.060708
0.081649
0.076997
0.060032
0.045900
0.037596
0.065138
0.080988
0.077286
0.061702
0.047422
0.038630
0.079010
0.076419
0.062010
0.047979
0.039094
0.065463
0.077063
0.074620
0.061211
0.047510
0.038673
0.064117
0.074328
0.072075
0.059395
0.046013
0.037225
0.063654
0.071418
0.068770
0.056686
0.043569
0.034801
0.061972
0.067954
0.064870
0.053247
0.040440
0.031711
0.061644
0.064781
0.060626
0.049490
0.037159
0.028661
0.062378
0.062523
0.056909
0.046172
0.034691
0.026881
0.066985
0.063238
0.055043
0.044491
0.034284
0.027696
0.075575
0.068209
0.056701
0.045688
0.036596
0.031373
0.086301
0.076702
0.062022
0.049296
0.040907
0.036457
0.095603
0.085089
0.068021
0.053921
0.045499
0.041395
0.094728
0.087629
0.072049
0.057332
0.049108
0.045278
0.090422
0.087028
0.073846
0.059222
0.051631
0.047976
0.085614
0.085301
0.073898
0.060485
0.053259
0.049928
0.079419
0.082658
0.073793
0.061045
0.054539
0.051435
0.075065
0.079990
0.072951
0.061302
0.055365
0.052622
0.072215
0.077064
0.071038
0.060925
0.055659
0.053309
0.068117
0.072960
0.068274
0.059640
0.055270
0.053330
0.063310
0.067945
0.064545
0.057648
0.054122
0.052651
0.057701
0.062377
0.060363
0.055059
0.052413
0.051357
0.052230
0.056968
0.056122
0.052262
0.050346
0.049662
0.047261
0.052153
0.052313
0.049532
0.048202
0.047793
0.043410
0.048389
0.049193
0.047146
0.046187
0.045965
0.040829
0.045802
0.046920
0.045235
0.044456
0.044328
0.039357
0.044277
0.045477
0.043834
0.043082
0.042973
0.038811
0.043619
0.044673
0.042909
0.042068
0.041936
0.038601
0.043424
0.044373
0.042356
0.041396
0.041213
0.038754
0.043613
0.044392
0.042130
0.041022
0.040790
0.039013
0.044049
0.044726
0.042173
0.040929
0.040641
0.039590
0.044817
0.045353
0.042485
0.041086
0.040740
0.040520
0.045982
0.046307
0.043051
0.041470
0.041054
0.041907
0.047600
0.047614
0.043855
0.042048
0.041539
0.043817
0.049725
0.049265
0.044864
0.042765
0.042133
0.046227
0.052339
0.051235
0.046013
0.043549
0.042756
0.049108
0.055389
0.053431
0.047216
0.044300
0.043306
0.052282
0.058728
0.055733
0.048334
0.044906
0.043668
0.055638
0.062156
0.057915
0.049244
0.045234
0.043731
0.058865
0.065387
0.059799
0.049760
0.045205
0.043398
0.062141
0.068204
0.061044
0.049871
0.044727
0.042635
0.065183
0.070396
0.061785
0.049462
0.043841
0.041441
0.069328
0.072344
0.061721
0.048663
0.042612
0.039830
0.074725
0.073973
0.060916
0.047734
0.041006
0.037787
0.077977
0.074120
0.059892
0.046381
0.039107
0.035101
0.079496
0.072646
0.057468
0.045041
0.036642
0.031531
0.077776
0.068569
0.053976
0.043441
0.033873
0.026744
0.067768
0.060005
0.049980
0.042276
0.031154
0.020831
0.056326
0.051469
0.047235
0.042769
0.029572
0.014455
0.043466
0.043532
0.046243
0.044842
0.030058
0.010035
0.032451
0.038075
0.047028
0.048198
0.032569
0.012397
0.022161
0.033638
0.047939
0.052437
0.036674
0.019826
0.035814
0.041477
0.053229
0.058513
0.042063
0.027961
0.086457
0.087753
0.083766
0.074512
0.048693
0.032500
0.200196
0.195973
0.183587
0.122860
0.055702
0.029019
0.302667
0.293847
0.295103
0.207069
0.060878
0.024395
0.678678
0.514458
0.234571
0.108318
0.053553
0.031156
0.443850
0.303075
0.151619
0.088164
0.053907
0.032302
0.242457
0.182257
0.115002
0.075833
0.053054
0.041850
0.096235
0.114620
0.093388
0.066919
0.052506
0.045342
0.051058
0.092624
0.082650
0.062256
0.049731
0.043389
0.037416
0.081009
0.077410
0.059165
0.045811
0.038446
0.038460
0.075241
0.073931
0.056782
0.041896
0.032675
0.040041
0.071283
0.071132
0.054734
0.038543
0.027352
0.043584
0.068567
0.068600
0.052914
0.035915
0.023042
0.045341
0.066320
0.066309
0.051277
0.033989
0.020000
0.048533
0.064850
0.064265
0.049895
0.032788
0.018510
0.051395
0.064053
0.062684
0.048938
0.032523
0.019029
0.056841
0.064762
0.061872
0.048770
0.033569
0.021871
0.064114
0.067479
0.062485
0.049850
0.036289
0.026831
0.075685
0.073545
0.065147
0.052634
0.040728
0.033284
0.090736
0.083291
0.070536
0.057196
0.046375
0.040350
0.108757
0.096507
0.078309
0.062701
0.052274
0.046849
0.126269
0.110541
0.086754
0.068156
0.056903
0.051685
0.134479
0.119548
0.093508
0.071126
0.059239
0.053932
0.127922
0.115816
0.091241
0.069494
0.058517
0.053446
0.112963
0.105868
0.084700
0.065389
0.055522
0.051096
0.092731
0.093411
0.078376
0.060213
0.052104
0.048086
0.079652
0.083871
0.072249
0.056388
0.049117
0.045699
0.071895
0.077273
0.067534
0.053750
0.047371
0.044379
0.065737
0.071838
0.064204
0.051989
0.046560
0.044002
0.061547
0.066991