# vtk DataFile Version 2.0
test
ASCII
DATASET UNSTRUCTURED_GRID
POINTS 41454 float
0.750000 -0.500000 0.050000
0.750000 0.465000 0.050000
0.768790 -0.495742 0.050000
0.774736 -0.482740 0.050000
0.781460 -0.465990 0.050000
0.784753 -0.449901 0.050000
0.787685 -0.433041 0.050000
0.789611 -0.416483 0.050000
0.791168 -0.399605 0.050000
0.792187 -0.382823 0.050000
0.792836 -0.365873 0.050000
0.793058 -0.348965 0.050000
0.792889 -0.331958 0.050000
0.792307 -0.315011 0.050000
0.791298 -0.298027 0.050000
0.789860 -0.281181 0.050000
0.787981 -0.264405 0.050000
0.785711 -0.247926 0.050000
0.783127 -0.231685 0.050000
0.780376 -0.215892 0.050000
0.777690 -0.200439 0.050000
0.775192 -0.185287 0.050000
0.773106 -0.170390 0.050000
0.771405 -0.155451 0.050000
0.770106 -0.140577 0.050000
0.769138 -0.125509 0.050000
0.768400 -0.110354 0.050000
0.767827 -0.095026 0.050000
0.767344 -0.079595 0.050000
0.766913 -0.064054 0.050000
0.766501 -0.048448 0.050000
0.766095 -0.032785 0.050000
0.765683 -0.017090 0.050000
0.765263 -0.001369 0.050000
0.764832 0.014364 0.050000
0.764389 0.030104 0.050000
0.763935 0.045843 0.050000
0.763469 0.061577 0.050000
0.762994 0.077296 0.050000
0.762509 0.092998 0.050000
0.762020 0.108669 0.050000
0.761529 0.124306 0.050000
0.761048 0.139888 0.050000
0.760586 0.155409 0.050000
0.760165 0.170840 0.050000
0.759815 0.186175 0.050000
0.759574 0.201383 0.050000
0.759502 0.216461 0.050000
0.759659 0.231400 0.050000
0.760118 0.246231 0.050000
0.760953 0.260968 0.050000
0.762208 0.275774 0.050000
0.763830 0.290683 0.050000
0.765784 0.305893 0.050000
0.767792 0.321564 0.050000
0.769620 0.337646 0.050000
0.770998 0.354246 0.050000
0.771639 0.371113 0.050000
0.771493 0.388141 0.050000
0.770227 0.405223 0.050000
0.768071 0.421882 0.050000
0.764046 0.438392 0.050000
0.759889 0.452877 0.050000
-0.750000 0.465000 0.050000
0.733871 0.465000 0.050000
0.717742 0.465000 0.050000
0.701613 0.465000 0.050000
0.685484 0.465000 0.050000
0.669355 0.465000 0.050000
0.653226 0.465000 0.050000
0.637097 0.465000 0.050000
0.620968 0.465000 0.050000
0.604839 0.465000 0.050000
0.588710 0.465000 0.050000
0.572581 0.465000 0.050000
0.556452 0.465000 0.050000
0.540323 0.465000 0.050000
0.524194 0.465000 0.050000
0.508065 0.465000 0.050000
0.491935 0.465000 0.050000
0.475807 0.465000 0.050000
0.459677 0.465000 0.050000
0.443548 0.465000 0.050000
0.427419 0.465000 0.050000
0.411290 0.465000 0.050000
0.395161 0.465000 0.050000
0.379032 0.465000 0.050000
0.362903 0.465000 0.050000
0.346774 0.465000 0.050000
0.330645 0.465000 0.050000
0.314516 0.465000 0.050000
0.298387 0.465000 0.050000
0.282258 0.465000 0.050000
0.266129 0.465000 0.050000
0.250000 0.465000 0.050000
0.233871 0.465000 0.050000
0.217742 0.465000 0.050000
0.201613 0.465000 0.050000
0.185484 0.465000 0.050000
0.169355 0.465000 0.050000
0.153226 0.465000 0.050000
0.137097 0.465000 0.050000
0.120968 0.465000 0.050000
0.104839 0.465000 0.050000
0.088710 0.465000 0.050000
0.072581 0.465000 0.050000
0.056452 0.465000 0.050000
0.040323 0.465000 0.050000
0.024194 0.465000 0.050000
0.008065 0.465000 0.050000
-0.008065 0.465000 0.050000
-0.024194 0.465000 0.050000
-0.040323 0.465000 0.050000
-0.056452 0.465000 0.050000
-0.072581 0.465000 0.050000
-0.088710 0.465000 0.050000
-0.104839 0.465000 0.050000
-0.120968 0.465000 0.050000
-0.137097 0.465000 0.050000
-0.153226 0.465000 0.050000
-0.169355 0.465000 0.050000
-0.185484 0.465000 0.050000
-0.201613 0.465000 0.050000
-0.217742 0.465000 0.050000
-0.233871 0.465000 0.050000
-0.250000 0.465000 0.050000
-0.266129 0.465000 0.050000
-0.282258 0.465000 0.050000
-0.298387 0.465000 0.050000
-0.314516 0.465000 0.050000
-0.330645 0.465000 0.050000
-0.346774 0.465000 0.050000
-0.362903 0.465000 0.050000
-0.379032 0.465000 0.050000
-0.395161 0.465000 0.050000
-0.411290 0.465000 0.050000
-0.427419 0.465000 0.050000
-0.443548 0.465000 0.050000
-0.459677 0.465000 0.050000
-0.475807 0.465000 0.050000
-0.491935 0.465000 0.050000
-0.508065 0.465000 0.050000
-0.524194 0.465000 0.050000
-0.540323 0.465000 0.050000
-0.556452 0.465000 0.050000
-0.572581 0.465000 0.050000
-0.588710 0.465000 0.050000
-0.604839 0.465000 0.050000
-0.620968 0.465000 0.050000
-0.637097 0.465000 0.050000
-0.653226 0.465000 0.050000
-0.669355 0.465000 0.050000
-0.685484 0.465000 0.050000
-0.701613 0.465000 0.050000
-0.717742 0.465000 0.050000
-0.733871 0.465000 0.050000
-0.750000 -0.500000 0.050000
-0.758754 0.452161 0.050000
-0.762605 0.437579 0.050000
-0.766391 0.420951 0.050000
-0.768511 0.404310 0.050000
-0.769828 0.387122 0.050000
-0.770146 0.370142 0.050000
-0.769773 0.353128 0.050000
-0.768764 0.336513 0.050000
-0.767364 0.320131 0.050000
-0.765714 0.304216 0.050000
-0.764079 0.288607 0.050000
-0.762542 0.273270 0.050000
-0.761268 0.258151 0.050000
-0.760259 0.243058 0.050000
-0.759523 0.228027 0.050000
-0.759032 0.212914 0.050000
-0.758731 0.197758 0.050000
-0.758584 0.182504 0.050000
-0.758545 0.167189 0.050000
-0.758589 0.151798 0.050000
-0.758689 0.136360 0.050000
-0.758833 0.120872 0.050000
-0.759009 0.105359 0.050000
-0.759209 0.089815 0.050000
-0.759432 0.074264 0.050000
-0.759672 0.058694 0.050000
-0.759928 0.043129 0.050000
-0.760195 0.027552 0.050000
-0.760467 0.011991 0.050000
-0.760741 -0.003564 0.050000
-0.761012 -0.019084 0.050000
-0.761285 -0.034563 0.050000
-0.761571 -0.049968 0.050000
-0.761893 -0.065285 0.050000
-0.762285 -0.080481 0.050000
-0.762794 -0.095549 0.050000
-0.763483 -0.110454 0.050000
-0.764416 -0.125234 0.050000
-0.765683 -0.139839 0.050000
-0.767345 -0.154430 0.050000
-0.769439 -0.168928 0.050000
-0.772007 -0.183599 0.050000
-0.774915 -0.198454 0.050000
-0.778106 -0.213625 0.050000
-0.781360 -0.229247 0.050000
-0.784501 -0.245231 0.050000
-0.787387 -0.261659 0.050000
-0.789878 -0.278344 0.050000
-0.791939 -0.295303 0.050000
-0.793506 -0.312391 0.050000
-0.794600 -0.329597 0.050000
-0.795180 -0.346859 0.050000
-0.795293 -0.364117 0.050000
-0.794862 -0.381419 0.050000
-0.793970 -0.398597 0.050000
-0.792398 -0.415883 0.050000
-0.790362 -0.432843 0.050000
-0.787101 -0.450126 0.050000
-0.783444 -0.466552 0.050000
-0.775823 -0.483577 0.050000
-0.769586 -0.496694 0.050000
-0.733871 -0.500000 0.050000
-0.717742 -0.500000 0.050000
-0.701613 -0.500000 0.050000
-0.685484 -0.500000 0.050000
-0.669355 -0.500000 0.050000
-0.653226 -0.500000 0.050000
-0.637097 -0.500000 0.050000
-0.620968 -0.500000 0.050000
-0.604839 -0.500000 0.050000
-0.588710 -0.500000 0.050000
-0.572581 -0.500000 0.050000
-0.556452 -0.500000 0.050000
-0.540323 -0.500000 0.050000
-0.524194 -0.500000 0.050000
-0.508065 -0.500000 0.050000
-0.491935 -0.500000 0.050000
-0.475807 -0.500000 0.050000
-0.459677 -0.500000 0.050000
-0.443548 -0.500000 0.050000
-0.427419 -0.500000 0.050000
-0.411290 -0.500000 0.050000
-0.395161 -0.500000 0.050000
-0.379032 -0.500000 0.050000
-0.362903 -0.500000 0.050000
-0.346774 -0.500000 0.050000
-0.330645 -0.500000 0.050000
-0.314516 -0.500000 0.050000
-0.298387 -0.500000 0.050000
-0.282258 -0.500000 0.050000
-0.266129 -0.500000 0.050000
-0.250000 -0.500000 0.050000
-0.233871 -0.500000 0.050000
-0.217742 -0.500000 0.050000
-0.201613 -0.500000 0.050000
-0.185484 -0.500000 0.050000
-0.169355 -0.500000 0.050000
-0.153226 -0.500000 0.050000
-0.137097 -0.500000 0.050000
-0.120968 -0.500000 0.050000
-0.104839 -0.500000 0.050000
-0.088710 -0.500000 0.050000
-0.072581 -0.500000 0.050000
-0.056452 -0.500000 0.050000
-0.040323 -0.500000 0.050000
-0.024194 -0.500000 0.050000
-0.008065 -0.500000 0.050000
0.008065 -0.500000 0.050000
0.024194 -0.500000 0.050000
0.040323 -0.500000 0.050000
0.056452 -0.500000 0.050000
0.072581 -0.500000 0.050000
0.088710 -0.500000 0.050000
0.104839 -0.500000 0.050000
0.120968 -0.500000 0.050000
0.137097 -0.500000 0.050000
0.153226 -0.500000 0.050000
0.169355 -0.500000 0.050000
0.185484 -0.500000 0.050000
0.201613 -0.500000 0.050000
0.217742 -0.500000 0.050000
0.233871 -0.500000 0.050000
0.250000 -0.500000 0.050000
0.266129 -0.500000 0.050000
0.282258 -0.500000 0.050000
0.298387 -0.500000 0.050000
0.314516 -0.500000 0.050000
0.330645 -0.500000 0.050000
0.346774 -0.500000 0.050000
0.362903 -0.500000 0.050000
0.379032 -0.500000 0.050000
0.395161 -0.500000 0.050000
0.411290 -0.500000 0.050000
0.427419 -0.500000 0.050000
0.443548 -0.500000 0.050000
0.459677 -0.500000 0.050000
0.475807 -0.500000 0.050000
0.491935 -0.500000 0.050000
0.508065 -0.500000 0.050000
0.524194 -0.500000 0.050000
0.540323 -0.500000 0.050000
0.556452 -0.500000 0.050000
0.572581 -0.500000 0.050000
0.588710 -0.500000 0.050000
0.604839 -0.500000 0.050000
0.620968 -0.500000 0.050000
0.637097 -0.500000 0.050000
0.653226 -0.500000 0.050000
0.669355 -0.500000 0.050000
0.685484 -0.500000 0.050000
0.701613 -0.500000 0.050000
0.717742 -0.500000 0.050000
0.733871 -0.500000 0.050000
0.750342 -0.483795 0.050000
0.760707 -0.474954 0.050000
0.765482 -0.461718 0.050000
0.769431 -0.446378 0.050000
0.771961 -0.430766 0.050000
0.774084 -0.414576 0.050000
0.775549 -0.398359 0.050000
0.776650 -0.381887 0.050000
0.777292 -0.365413 0.050000
0.777557 -0.348803 0.050000
0.777406 -0.332216 0.050000
0.776840 -0.315557 0.050000
0.775838 -0.298980 0.050000
0.774369 -0.282395 0.050000
0.772420 -0.265997 0.050000
0.769998 -0.249699 0.050000
0.767166 -0.233744 0.050000
0.764113 -0.218002 0.050000
0.761045 -0.202600 0.050000
0.758311 -0.187408 0.050000
0.756008 -0.172224 0.050000
0.754262 -0.157164 0.050000
0.753000 -0.141918 0.050000
0.752113 -0.126665 0.050000
0.751492 -0.111265 0.050000
0.751021 -0.095803 0.050000
0.750631 -0.080247 0.050000
0.750267 -0.064641 0.050000
0.749908 -0.048981 0.050000
0.749537 -0.033292 0.050000
0.749151 -0.017576 0.050000
0.748746 -0.001847 0.050000
0.748324 0.013894 0.050000
0.747884 0.029637 0.050000
0.747426 0.045381 0.050000
0.746952 0.061117 0.050000
0.746461 0.076845 0.050000
0.745955 0.092554 0.050000
0.745435 0.108245 0.050000
0.744905 0.123903 0.050000
0.744369 0.139529 0.050000
0.743838 0.155101 0.050000
0.743330 0.170622 0.050000
0.742874 0.186066 0.050000
[...]
CELL_DATA 34596
SCALARS Mises_Stress_Abs(MPa) float 1
LOOKUP_TABLE default
42.431600
45.007500
31.565200
38.111100
41.550000
38.491600
42.268900
40.772900
28.327600
43.226400
11.153500
37.179800
20.636000
5.090670
1.701010
0.835288
0.688999
0.293641
15.477500
0.160732
1.835890
7.550940
23.071700
1.367980
1.051050
1.067220
0.538573
0.274603
22.937000
13.125900
20.348900
6.502800
9.072300
10.721200
16.295200
18.740900
14.760700
9.992550
16.186500
10.837900
17.021200
20.000500
22.689800
25.035600
11.586400
16.754100
1.117920
1.474500
1.012740
1.067610
0.534107
19.872800
23.040000
19.537300
15.237500
12.188500
20.747000
24.529800
21.021600
22.334500
22.351100
20.149300
21.457600
6.920750
19.566500
22.198300
6.983120
17.599200
14.470700
0.805138
1.401010
1.498270
1.377410
1.129350
19.949200
14.079900
23.811900
46.801500
15.172600
14.779300
50.927600
48.740400
15.744200
22.038500
55.097000
17.050600
14.176300
51.138200
52.270200
26.191800
52.046600
50.478700
1.390600
1.842270
1.403310
1.692340
1.522540
10.639800
12.490300
19.122200
16.640200
24.762000
29.237900
13.341500
12.433800
19.881600
11.448700
1.854430
2.159200
1.703710
1.794240
11.788300
9.298800
8.594290
3.768980
4.877940
16.361100
10.212500
13.802900
1.611470
17.364500
15.273200
20.318400
13.158600
18.692000
11.214700
8.243070
2.429760
1.911660
1.893350
2.251480
2.510300
8.952830
11.429500
13.269300
12.180600
7.823490
12.201200
10.747600
10.559400
9.007760
10.600600
2.390100
2.981690
2.631000
2.265840
2.268690
9.423540
10.122500
7.285070
11.065300
9.870720
5.681460
8.101040
10.795500
14.265400
9.269500
2.589830
3.652780
2.325660
2.876640
3.151040
5.617750
8.674440
9.147710
10.132100
7.213190
2.607500
3.260580
3.755480
3.836280
2.879910
3.655370
9.765840
10.838900
9.448660
3.799220
6.958480
7.786040
6.880570
10.691900
5.208550
3.910170
3.590700
3.455500
5.045840
2.789150
7.540110
9.826420
11.014400
9.272130
6.577980
7.256070
5.776130
6.535510
4.844020
7.736810
3.888090
4.337320
4.671820
3.039250
9.777330
4.806250
8.483520
10.512300
9.794590
11.431500
5.840650
5.323440
7.469510
4.424200
5.585750
3.196700
4.621950
4.894420
5.421500
10.907100
6.676440
13.266600
11.886200
15.508500
10.075700
4.717940
5.298190
5.429220
4.146100
4.624780
5.380080
6.560760
5.794020
5.558670
5.406480
14.019100
14.241500
11.148300
12.736700
4.728600
3.854100
17.520700
4.302750
3.630470
4.337600
11.513100
7.205690
5.299160
10.117000
7.750820
22.493600
12.981500
12.567900
21.112600
18.175700
3.522540
3.360680
3.174650
3.255810
3.872990
17.682100
7.988810
7.973010
8.348830
13.946500
22.842000
9.205350
15.233400
27.768600
16.025700
2.609770
3.175550
2.812680
2.604170
3.032320
19.383100
37.785300
11.288600
33.958800
38.464800
9.335420
10.996600
34.123500
34.706800
14.942800
13.161400
16.452900
40.351300
19.341200
38.433200
14.993000
21.761300
2.495480
2.127240
2.483650
2.547600
1.525010
10.939500
22.213900
19.508600
8.833990
12.200300
14.705600
18.678100
21.632200
21.217500
8.483060
16.722200
13.757400
14.327800
19.310800
20.050200
17.105600
18.710800
2.085580
1.111790
1.646690
1.951900
1.961950
10.726600
15.824700
10.351600
12.915400
9.097230
2.775310
15.534000
20.772300
4.269920
12.913000
12.450100
5.163110
21.299100
2.840760
9.082570
16.875800
5.234370
0.511194
1.199320
1.620190
1.549280
1.434860
13.414000
8.605090
11.877300
11.990000
14.084100
13.564300
16.009500
14.247500
14.051600
14.046200
6.421830
14.078800
16.142400
19.274900
18.264600
14.430500
17.768700
0.368612
1.431600
0.768557
1.008440
1.085240
4.783190
29.697000
8.973580
28.935700
22.336700
18.628300
12.675200
25.670900
31.335400
28.430800
31.610700
6.334530
24.442500
12.055200
19.768900
2.227580
28.462300
1.109440
0.791815
0.492968
1.182720
0.349750
0.026624
5.247860
8.858870
2.610760
3.260220
7.407290
5.214760
4.583400
2.553310
4.275020
2.505250
3.048500
1.913410
1.883490
3.679520
2.952040
1.820280
2.636770
1.840490
2.110160
2.053860
7.409740
7.984050
5.655310
7.101850
5.934890
6.068780
5.192090
6.195010
7.571730
4.187830
2.091250
5.080040
7.482420
2.825760
1.528670
1.995760
5.787180
3.969770
6.943500
6.653500
7.216170
3.288000
3.424950
2.055040
3.302680
1.948020
3.188500
2.395710
3.196580
2.947870
3.944760
4.257520
3.712250
1.021370
2.532880
1.665310
1.547690
2.578850
2.150570
2.050560
2.332570
1.509440
2.059850
3.632250
2.067810
2.374360
2.449170
2.688960
2.434020
4.159460
3.046480
2.883590
3.756950
3.005530
3.634220
3.505870
2.336520
1.140870
5.724060
4.426060
4.860390
4.910390
3.823590
5.051950
5.060500
5.497960
2.404190
6.179920
4.280980
5.249020
5.760770
2.866210
5.470890
4.227480
5.470580
4.249790
5.219200
4.639730
4.881960
3.601990
5.754220
4.872130
5.403370
4.414460
5.251900
4.280330
3.849940
1.568700
3.093070
4.201090
10.467800
10.640700
4.679760
6.360530
5.031450
7.840150
6.567130
8.963150
12.791600
12.007500
12.428000
9.280520
10.697200
9.034200
7.425690
7.943030
8.603950
12.152800
3.996880
4.609280
4.076760
5.485640
2.586930
2.516610
5.321020
6.879560
7.875980
8.978670
10.105600
2.882650
3.269360
0.001698
0.000922
7.535340
6.279700
5.407420
6.027860
5.814290
8.036560
2.306310
0.003022
0.005768
2.555420
7.597250
3.620550
0.001616
8.349880
0.002971
1.132660
1.308570
4.326450
2.712900
2.086320
0.005143
1.301580
4.377370
8.274350
3.503100
0.010421
4.255670
8.394110
1.816360
0.001664
2.995010
0.002530
1.236890
2.903740
0.816358
0.415558
8.088500
0.004499
3.980980
4.811060
0.009364
8.877740
4.011820
0.001686
1.140700
2.763300
2.920000
0.002264
1.055190
1.513830
0.004475
0.403296
4.756960
8.239140
0.009117
3.810200
0.001631
0.002308
8.691440
4.241350
3.418800
4.466760
1.874700
5.382860
5.956290
0.001660
0.008956
7.908360
0.004364
3.860160
1.248560
4.315530
4.041290
8.575160
3.227740
0.002798
0.001683
0.001110
7.788370
10.984400
10.320100
0.008845
7.245880
0.004336
3.944870
4.116440
1.394910
4.168210
8.025650
0.004363
0.000894
0.002682
0.004117
8.926590
11.384500
7.692120
0.008805
8.227750
13.512600
2.347190
3.698050
0.004317
3.009200
6.735310
7.341770
3.965150
5.436880
0.004205
0.003014
0.001233
4.930120
0.005311
0.008778
5.143670
9.843950
12.742600
0.001373
0.004316
5.307460
3.987440
2.574090
2.754830
6.415560
4.048710
12.400600
0.002308
0.005208
1.236370
5.268730
19.739900
13.501600
18.133400
0.008658
9.544330
4.808460
5.303460
0.004235
3.454020
1.719570
3.561160
3.642040
3.670750
5.374080
0.002467
12.419500
8.933930
8.889820
4.800060
8.388740
2.661820
4.494630
0.827015
0.008685
0.001657
4.381760
0.004109
1.657220
3.996380
6.727600
9.146680
6.408020
4.368710
6.463230
9.040520
9.078020
7.092560
3.212630
3.857160
1.540710
3.223470
0.835572
2.850580
1.932530
0.722445
3.706990
3.579870
0.002089
0.004434
4.566820
5.907990
8.976410
3.050510
6.144550
5.159780
8.881080
6.444630
6.486810
9.542300
7.181170
9.640320
10.512100
5.360850
1.200070
10.473300
9.812170
6.445090
9.722480
3.190050
10.018500
12.422600
5.411550
3.616980
11.070600
5.176920
9.657440
9.798950
11.531200
15.354100
3.709450
16.117600
6.998870
5.120630
4.898480
6.182680
3.913110
4.403640
1.012780
5.458050
4.649370
5.427200
4.593770
3.262580
3.538710
3.440030
5.032430
5.529300
6.996220
5.936300
4.788120
4.589510
4.849260
2.419210
2.895690
0.006127
1.427290
4.934860
4.104050
2.938610
11.366400
13.154600
14.287700
8.645870
12.709100
7.766400
9.135280
1.483850
5.523390
2.651800
5.994990
6.988000
3.394760
2.581900
4.285010
4.619060
4.272760
1.887680
2.412200
4.658580
1.910140
5.444450
1.579580
3.316910
5.762310
3.227550
3.309350
6.662740
9.806110
2.900010
6.246640
5.145260
4.444790
3.879220
6.834930
9.791270
9.433810
3.994710
3.568220
5.301880
4.778320
5.963810
4.829410
7.244500
5.231840
5.053820
3.601950
5.576060
4.660040
2.394970
5.445540
2.997660
5.811290
5.185120
5.969820
2.809230
3.047180
1.525600
2.793000
4.216810
2.501580
6.903560
2.433160
5.634960
5.550090
1.398380
4.870760
3.350940
2.234140
4.243190
2.984260
1.835100
2.429980
4.241030
3.592640
2.029500
2.356760
5.464640
3.120440
1.765290
2.955580
1.928310
3.455490
1.970200
2.902200
3.517270
2.171900
2.513250
1.319150
4.039710
1.953110
2.745230
3.904270
4.123110
2.786860
1.545810
2.109060
1.599690
2.500920
3.039960
1.671670
1.682470
2.144850
2.881250
2.482130
2.154350
2.830910
1.961430
2.213000
1.163080
1.721160
2.296280
1.055730
0.712897
2.276230
0.982551
1.055260
1.059770
1.060970
0.434635
1.375440
2.310050
1.438040
1.469980
1.280530
0.961492
0.795165
1.602020
2.767200
1.025290
2.431430
2.682710
2.399630
1.687630
0.593201
0.525660
1.271130
1.774880
0.748758
3.167320
4.358380
9.498090
1.079530
1.337650
1.056370
2.118950
2.780410
4.455800
2.482680
5.471710
4.938170
0.004272
3.343330
0.003715
0.004822
8.270190
10.111700
4.980920
5.563180
6.513700
0.004342
0.004966
2.779160
0.004295
4.441020
4.683940
3.965290
8.649640
5.970400
3.253210
0.005180
2.390330
0.005144
0.004363
4.993260
4.071110
3.895700
7.182190
0.939929
1.155040
0.006062
2.801680
1.921870
0.004455
0.005463
5.996000
3.309390
3.317350
4.321900
0.004562
0.005797
1.909810
0.007112
1.673620
4.688240
2.902980
3.677460
2.919620
1.301850
1.610420
0.004643
0.008282
0.006170
3.972240
2.264330
2.564540
2.879410
0.009551
0.004663
0.006518
2.010360
2.666670
2.488270
2.029630
0.010941
0.006808
0.673099
1.047190
0.004561
1.547520
1.713020
1.700490
2.658660
1.032150
1.749790
1.274310
1.205370
0.624090
1.219510
1.330050
2.753880
14.135100
9.280970
7.816000
17.876200
11.610600
5.091670
0.004911
0.002888
9.054140
4.943970
16.671800
8.166700
9.763360
14.532000
0.002973
6.872860
4.554310
0.004401
11.280800
7.403060
8.296030
13.553100
6.105220
3.798420
6.566290
0.003228
0.004756
0.004298
10.739400
7.877120
12.058200
6.251090
4.524550
6.847100
13.092900
13.401100
13.885400
8.967790
13.794000
14.201100
11.287300
11.976900
14.557500
15.289500
17.279300
15.302300
17.393900
16.547300
15.948000
18.248700
16.519200
16.992600
14.712900
15.912800
2.588970
16.067400
16.993400
9.987970
6.387090
3.918200
17.772400
18.580900
13.309700
8.304840
8.677070
6.703360
7.244720
7.659960
7.835300
7.822360
7.510280
7.348660
7.214130
6.794100
7.826110
9.161000
8.590540
9.865310
9.119680
9.251620
8.155370
8.230310
8.898080
8.499400
8.851030
9.206880
10.463300
12.218000
4.278960
10.655700
11.202200
8.318080
11.514700
9.144510
19.203100
7.130110
18.555700
17.174500
19.083900
9.713810
8.766150
1.205650
1.467730
1.623860
1.318960
3.543180
1.792160
2.515190
1.000610
0.811276
5.838300
1.394680
1.060580
1.184190
1.585770
1.478840
0.905728
1.317410
0.805812
1.684800
2.808360
1.679460
3.687720
11.726500
7.245900
9.406300
12.350300
13.289800
13.824800
6.694620
10.097600
4.709190
2.664050
6.508210
6.979300
6.211670
5.843070
6.341030
6.862020
6.531230
6.799390
6.679580
6.790860
6.935700
7.118300
7.649830
6.819940
5.111890
7.320740
7.387860
7.622740
7.757160
2.709810
7.087150
15.644800
14.213600
14.077300
8.606430
13.107200
11.888100
12.592900
9.662830
12.070400
6.615460
4.764910
12.720600
13.833100
13.473900
13.791000
14.227100
13.152700
14.636400
13.287400
14.222200
14.574400
15.170800
15.545100
15.065800
14.846500
15.042100
16.545500
8.810540
16.247900
7.118980
16.073200
13.605900
13.855800
18.212100
14.323100
21.920700
19.776100
20.683000
18.632900
21.248700
21.446300
22.094400
22.597500
20.570200
19.847100
22.389000
23.272300
22.963600
26.041800
26.270200
23.882300
24.383300
22.952900
13.050000
9.791080
22.619500
14.245500
20.150500
9.747400
14.604600
0.002283
7.267740
0.003798
10.215700
22.450800
6.978090
13.416600
21.080400
0.003468
12.298400
0.006039
8.852340
11.429700
8.476360
19.369100
20.935300
13.478500
5.828860
8.761910
0.002959
0.005189
0.003714
0.005678
0.004977
0.004594
0.006370
0.006816
0.004592
0.013661
0.008025
0.181785
0.612386
0.363380
0.012287
0.375332
5.563250
7.410490
4.762610
3.335820
2.782210
1.665190
1.230120
0.581139
0.312710
0.369055
0.238426
0.094204
0.056359
0.020416
0.014112
0.091304
0.051555
0.033365
0.032419
0.012512
0.009281
0.030818
0.045843
0.024329
0.015143
0.010989
0.008914
0.031754
0.052967
0.038057
0.022595
0.016337
0.013598
0.039422
0.056120
0.045962
0.031477
0.022911
0.018652
0.038400
0.055602
0.049999
0.037170
0.028119
0.023130
0.040745
0.054867
0.051505
0.040568
0.031708
0.026642
0.040627
0.053489
0.051813
0.042298
0.033949
0.029028
0.041493
0.052210
0.051259
0.042886
0.034993
0.030280
0.041264
0.050620
0.050108
0.042500
0.034978
0.030408
0.040950
0.048758
0.048290
0.041230
0.033927
0.029421
0.039577
0.046251
0.045735
0.039028
0.031845
0.027306
0.037415
0.042921
0.042241
0.035850
0.028703
0.024052
0.033737
0.038408
0.037696
0.031650
0.024549
0.019686
0.028825
0.032707
0.032077
0.026614
0.019612
0.014420
0.022896
0.026290
0.026027
0.021426
0.014777
0.009144
0.019215
0.021758
0.021635
0.018100
0.012583
0.007761
0.023144
0.023891
0.022622
0.019583
0.015718
0.012988
0.032612
0.032319
0.029375
0.025451
0.022144
0.020191
0.043601
0.042611
0.038026
0.032668
0.029092
0.027161
0.052416
0.051276
0.045574
0.039159
0.035095
0.033063
0.057199
0.056695
0.050884
0.043762
0.039548
0.037455
0.059042
0.058899
0.053287
0.046327
0.042195
0.040215
0.057430
0.058057
0.053277
0.046901
0.043187
0.041420
0.053668
0.055047
0.051402
0.045927
0.042790
0.041322
0.048945
0.050836
0.048275
0.043899
0.041375
0.040239
0.043738
0.046109
0.044610
0.041227
0.039336
0.038504
0.038859
0.041474
0.040806
0.038349
0.036983
0.036429
0.034485
0.037271
0.037269
0.035525
0.034603
0.034263
0.030933
0.033754
0.034189
0.032989
0.032377
0.032199
0.028195
0.031006
0.031716
0.030850
0.030440
0.030362
0.026294
0.029041
0.029869
0.029168
0.028851
0.028823
0.025115
0.027779
0.028605
0.027932
0.027623
0.027606
0.024457
0.027062
0.027839
0.027090
0.026736
0.026701
0.024212
0.026770
0.027449
0.026584
0.026151
0.026086
0.024183
0.026760
0.027362
0.026347
0.025831
0.025730
0.024379
0.026999
0.027515
0.026347
0.025743
0.025607
0.024760
0.027468
0.027899
0.026560
0.025867
0.025693
0.025384
0.028197
0.028520
0.026981
0.026186
0.025970
0.026315
0.029231
0.029390
0.027605
0.026685
0.026414
0.027588
0.030601
0.030526
0.028418
0.027339
0.026994
0.029275
0.032334
0.031912
0.029397
0.028106
0.027663
0.031353
0.034412
0.033520
0.030479
0.028924
0.028348
0.033838
0.036776
0.035246
0.031582
0.029688
0.028949
0.036536
0.039265
0.036957
0.032542
0.030268
0.029325
0.039302
0.041611
0.038356
0.033184
0.030472
0.029309
0.041515
0.043352
0.039164
0.033213
0.030100
0.028698
0.042761
0.043961
0.038857
0.032378
0.028922
0.027292
0.042264
0.042772
0.037070
0.030432
0.026757
0.024924
0.038980
0.039201
0.033558
0.027255
0.023584
0.021513
0.033697
0.033479
0.028355
0.023268
0.019609
0.017155
0.026223
0.026182
0.022711
0.019443
0.015668
0.012192
0.019081
0.019816
0.019048
0.017929
0.013340
0.007593
0.017628
0.018728
0.020111
0.019970
0.014182
0.005938
0.021124
0.022386
0.024477
0.024133
0.017222
0.008382
0.025946
0.027073
0.029167
0.028293
0.020376
0.011378
0.027794
0.028965
0.031356
0.031038
0.022409
0.013161
0.027380
0.028272
0.031439
0.031809
0.022480
0.013330
0.021018
0.021736
0.026414
0.030152
0.020425
0.011843
0.021889
0.019420
0.021862
0.027159
0.015843
0.009650
0.058394
0.058952
0.053699
0.036506
0.017734
0.007407
0.143479
0.142106
0.149506
0.105133
0.027323
0.011519
0.416316
0.285506
0.099922
0.053620
0.025284
0.013455
0.234052
0.153670
0.070763
0.038340
0.020442
0.011088
0.099582
0.083703
0.051676
0.030282
0.020169
0.015293
0.040074
0.061019
0.046019
0.029850
0.021900
0.018305
0.027175
0.053542
0.045687
0.031619
0.023247
0.018972
0.023871
0.049577
0.045779
0.033220
0.023930
0.018556
0.024067
0.046982
0.045408
0.034078
0.024270
0.017999
0.025849
0.045017
0.044580
0.034322
0.024358
0.017597
0.043246
0.043468
0.034055
0.024183
0.017216
0.027792
0.041686
0.042092
0.033369
0.023671
0.016641
0.028150
0.040074
0.040491
0.032291
0.022799
0.015741
0.028838
0.038510
0.038635
0.030879
0.021614
0.014556
0.029234
0.036910
0.036610
0.029233
0.020304
0.013367
0.030835
0.035770
0.034584
0.027623
0.019249
0.012782
0.033502
0.035515
0.033082
0.026492
0.019002
0.013536
0.038611
0.037256
0.032828
0.026415
0.020070
0.015856
0.045450
0.041184
0.034379
0.027823
0.022370
0.019215
0.051974
0.046312
0.037695
0.030260
0.025378
0.022786
0.057544
0.051162
0.041142
0.033092
0.028333
0.025986
0.057780
0.053329
0.043928
0.035466
0.030759
0.028543
0.056044
0.053754
0.045649
0.037069
0.032611
0.030446
0.053874
0.053322
0.046178
0.038209
0.033890
0.031868
0.050623
0.051957
0.046273
0.038708
0.034779
0.032881
0.048049
0.050165
0.045556
0.038744
0.035183
0.033506
0.045670
0.047862
0.044026
0.038200
0.035096
0.033672
0.042422
0.044795
0.041947
0.037052
0.034513
0.033358
0.039046
0.041352
0.039321
0.035491
0.033475
0.032609
0.035299
0.037700
0.036527
0.033620
0.032136
0.031523
0.031786
0.034231
0.033744
0.031682
0.030630
0.030241
0.028584
0.031143
0.031257
0.029823
0.029122
0.028897
0.026068
0.028690
0.029196
0.028201
0.027724
0.027613
0.024331
0.026961
0.027661
0.026887
0.026523
0.026470
0.023290
0.025892
0.026644
0.025900
0.025557
0.025517
0.022851
0.025377
0.026032
0.025217
0.024824
0.024771
0.022631
0.025156
0.025739
0.024774
0.024311
0.024228
0.022637
0.025169
0.025646
0.024538
0.023990
0.023878
0.022693
0.025322
0.025743
0.024473
0.023846
0.023702
0.022930
0.025665
0.026015
0.024576
0.023864
0.023688
0.023372
0.026237
0.026482
0.024840
0.024030
0.023815
0.024080
0.027076
0.027166
0.025259
0.024327
0.024061
0.025119
0.028225
0.028064
0.025819
0.024726
0.024394
0.026464
0.029680
0.029176
0.026487
0.025192
0.024767
0.028153
0.031434
0.030452
0.027221
0.025666
0.025125
0.030057
0.033412
0.031845
0.027943
0.026085
0.025397
0.032198
0.035529
0.033216
0.028580
0.026363
0.025510
0.034289
0.037602
0.034481
0.029008
0.026437
0.025392
0.036525
0.039514
0.035387
0.029185
0.026233
0.024998
0.038508
0.041006
0.035956
0.029026
0.025742
0.024310
0.040734
0.042186
0.036023
0.028557
0.024991
0.023331
0.043786
0.043129
0.035540
0.027950
0.023987
0.022072
0.045676
0.043189
0.034873
0.027109
0.022825
0.020457
0.046465
0.042272
0.033460
0.026320
0.021411
0.018384
0.045472
0.039920
0.031582
0.025518
0.019893
0.015676
0.039503
0.035120
0.029558
0.025042
0.018448
0.012344
0.032409
0.029990
0.027997
0.025397
0.017600
0.008710
0.023210
0.024715
0.027356
0.026595
0.017885
0.006214
0.014730
0.021130
0.027787
0.028600
0.019444
0.007731
0.011948
0.020904
0.029373
0.031424
0.022048
0.012192
0.027232
0.029974
0.034312
0.035597
0.025456
0.016789
0.061300
0.060290
0.054656
0.045956
0.029154
0.018821
0.119722
0.116778
0.106110
0.071693
0.032305
0.015829
0.155134
0.151726
0.155747
0.118366
0.031204
0.013179
0.351334
0.276106
0.105242
0.055479
0.026896
0.016088
0.239206
0.174023
0.094295
0.048784
0.029636
0.017200
0.161167
0.124382
0.075105
0.046799
0.031343
0.023981
0.086824
0.085872
0.063407
0.043633
0.032690
0.027182
0.047876
0.065991
0.055905
0.040943
0.031632
0.026775
0.032173
0.055080
0.050774
0.038295
0.029151
0.023955
0.022982
0.048209
0.047016
0.035794
0.026129
0.020014
0.019333
0.043706
0.044009
0.033567
0.023192
0.015796
0.018237
0.040494
0.041547
0.031659
0.020684
0.011778
0.018527
0.038206
0.039522
0.030108
0.018798
0.008350
0.020264
0.036703
0.037918
0.028970
0.017706
0.006393
0.022738
0.036004
0.036817
0.028349
0.017617
0.007291
0.027252
0.036493
0.036381
0.028422
0.018695
0.010550
0.033082
0.038458
0.036937
0.029375
0.020941
0.014859
0.041841
0.042678
0.038764
0.031325
0.024109
0.019536
0.052289
0.049016
0.042051
0.034155
0.027691
0.024092
0.063888
0.057076
0.046559
0.037249
0.031150
0.027976
0.074361
0.064899
0.050834
0.040106
0.033705
0.030737
0.077533
0.068807
0.053898
0.041472
0.034973
0.032039
0.075647
0.068062
0.053470
0.040969
0.034809
0.031951
0.068087
0.063458
0.050602
0.039282
0.033562
0.030985
0.057288
0.057049
0.047663
0.036962
0.032136
0.029737
0.050445
0.052001
0.044523
0.035229
0.030877
0.028790
0.045647
0.048067
0.041940
0.033910
0.030099
0.028274
0.041547
0.044493
0.039850
0.032837
0.029607
0.028064
0.038674
0.041260
0.037569
0.031865
0.029125
0.027905
0.035407
0.037880
0.035230
0.030662
0.028518
0.027585
0.032195
0.034467
0.032679
0.029299
0.027684
0.027037
0.028619
0.031011
0.030193
0.027801
0.026694
0.026281
0.025387
0.027931
0.027890
0.026356
0.025630
0.025404
0.022701