# vtk DataFile Version 2.0
test
ASCII
DATASET UNSTRUCTURED_GRID
POINTS 41454 float
0.750000 -0.500000 0.050000
0.750000 0.405000 0.050000
0.747118 -0.539034 0.050000
0.774271 -0.527110 0.050000
0.800855 -0.516498 0.050000
0.817972 -0.498899 0.050000
0.831304 -0.480074 0.050000
0.840479 -0.460520 0.050000
0.847653 -0.440632 0.050000
0.852698 -0.420668 0.050000
0.856240 -0.400593 0.050000
0.858271 -0.380570 0.050000
0.858975 -0.360586 0.050000
0.858361 -0.340797 0.050000
0.856486 -0.321244 0.050000
0.853386 -0.302128 0.050000
0.849130 -0.283552 0.050000
0.843881 -0.265789 0.050000
0.837862 -0.248930 0.050000
0.831506 -0.233239 0.050000
0.825338 -0.218533 0.050000
0.819661 -0.204539 0.050000
0.815016 -0.191156 0.050000
0.811121 -0.177512 0.050000
0.808153 -0.164156 0.050000
0.805944 -0.150290 0.050000
0.804226 -0.136214 0.050000
0.802852 -0.121784 0.050000
0.801643 -0.107093 0.050000
0.800500 -0.092195 0.050000
0.799357 -0.077148 0.050000
0.798186 -0.062018 0.050000
0.796974 -0.046829 0.050000
0.795719 -0.031622 0.050000
0.794422 -0.016407 0.050000
0.793084 -0.001207 0.050000
0.791710 0.013970 0.050000
0.790303 0.029106 0.050000
0.788870 0.044189 0.050000
0.787416 0.059203 0.050000
0.785957 0.074124 0.050000
0.784504 0.088938 0.050000
0.783089 0.103599 0.050000
0.781745 0.118094 0.050000
0.780534 0.132360 0.050000
0.779537 0.146388 0.050000
0.778849 0.160136 0.050000
0.778644 0.173572 0.050000
0.778994 0.186838 0.050000
0.780130 0.199728 0.050000
0.782144 0.212742 0.050000
0.784977 0.225765 0.050000
0.788623 0.239100 0.050000
0.792967 0.253133 0.050000
0.797708 0.268139 0.050000
0.801958 0.284675 0.050000
0.805151 0.302358 0.050000
0.806256 0.321260 0.050000
0.805508 0.340294 0.050000
0.801206 0.359833 0.050000
0.795387 0.377970 0.050000
0.782384 0.394725 0.050000
0.773709 0.408883 0.050000
-0.750000 0.405000 0.050000
0.733871 0.405000 0.050000
0.717742 0.405000 0.050000
0.701613 0.405000 0.050000
0.685484 0.405000 0.050000
0.669355 0.405000 0.050000
0.653226 0.405000 0.050000
0.637097 0.405000 0.050000
0.620968 0.405000 0.050000
0.604839 0.405000 0.050000
0.588710 0.405000 0.050000
0.572581 0.405000 0.050000
0.556452 0.405000 0.050000
0.540323 0.405000 0.050000
0.524194 0.405000 0.050000
0.508065 0.405000 0.050000
0.491935 0.405000 0.050000
0.475807 0.405000 0.050000
0.459677 0.405000 0.050000
0.443548 0.405000 0.050000
0.427419 0.405000 0.050000
0.411290 0.405000 0.050000
0.395161 0.405000 0.050000
0.379032 0.405000 0.050000
0.362903 0.405000 0.050000
0.346774 0.405000 0.050000
0.330645 0.405000 0.050000
0.314516 0.405000 0.050000
0.298387 0.405000 0.050000
0.282258 0.405000 0.050000
0.266129 0.405000 0.050000
0.250000 0.405000 0.050000
0.233871 0.405000 0.050000
0.217742 0.405000 0.050000
0.201613 0.405000 0.050000
0.185484 0.405000 0.050000
0.169355 0.405000 0.050000
0.153226 0.405000 0.050000
0.137097 0.405000 0.050000
0.120968 0.405000 0.050000
0.104839 0.405000 0.050000
0.088710 0.405000 0.050000
0.072581 0.405000 0.050000
0.056452 0.405000 0.050000
0.040323 0.405000 0.050000
0.024194 0.405000 0.050000
0.008065 0.405000 0.050000
-0.008065 0.405000 0.050000
-0.024194 0.405000 0.050000
-0.040323 0.405000 0.050000
-0.056452 0.405000 0.050000
-0.072581 0.405000 0.050000
-0.088710 0.405000 0.050000
-0.104839 0.405000 0.050000
-0.120968 0.405000 0.050000
-0.137097 0.405000 0.050000
-0.153226 0.405000 0.050000
-0.169355 0.405000 0.050000
-0.185484 0.405000 0.050000
-0.201613 0.405000 0.050000
-0.217742 0.405000 0.050000
-0.233871 0.405000 0.050000
-0.250000 0.405000 0.050000
-0.266129 0.405000 0.050000
-0.282258 0.405000 0.050000
-0.298387 0.405000 0.050000
-0.314516 0.405000 0.050000
-0.330645 0.405000 0.050000
-0.346774 0.405000 0.050000
-0.362903 0.405000 0.050000
-0.379032 0.405000 0.050000
-0.395161 0.405000 0.050000
-0.411290 0.405000 0.050000
-0.427419 0.405000 0.050000
-0.443548 0.405000 0.050000
-0.459677 0.405000 0.050000
-0.475807 0.405000 0.050000
-0.491935 0.405000 0.050000
-0.508065 0.405000 0.050000
-0.524194 0.405000 0.050000
-0.540323 0.405000 0.050000
-0.556452 0.405000 0.050000
-0.572581 0.405000 0.050000
-0.588710 0.405000 0.050000
-0.604839 0.405000 0.050000
-0.620968 0.405000 0.050000
-0.637097 0.405000 0.050000
-0.653226 0.405000 0.050000
-0.669355 0.405000 0.050000
-0.685484 0.405000 0.050000
-0.701613 0.405000 0.050000
-0.717742 0.405000 0.050000
-0.733871 0.405000 0.050000
-0.750000 -0.500000 0.050000
-0.772466 0.405250 0.050000
-0.780886 0.391435 0.050000
-0.792777 0.374461 0.050000
-0.798527 0.356411 0.050000
-0.802823 0.336949 0.050000
-0.803945 0.317965 0.050000
-0.803381 0.298963 0.050000
-0.800971 0.281114 0.050000
-0.797567 0.263999 0.050000
-0.793547 0.248274 0.050000
-0.789615 0.233331 0.050000
-0.785902 0.219118 0.050000
-0.782767 0.205411 0.050000
-0.780210 0.191845 0.050000
-0.778265 0.178399 0.050000
-0.776917 0.164903 0.050000
-0.776080 0.151269 0.050000
-0.775646 0.137476 0.050000
-0.775531 0.123509 0.050000
-0.775649 0.109377 0.050000
-0.775941 0.095103 0.050000
-0.776358 0.080704 0.050000
-0.776868 0.066214 0.050000
-0.777447 0.051642 0.050000
-0.778084 0.037026 0.050000
-0.778766 0.022358 0.050000
-0.779486 0.007679 0.050000
-0.780236 -0.007032 0.050000
-0.781002 -0.021728 0.050000
-0.781777 -0.036417 0.050000
-0.782548 -0.051051 0.050000
-0.783323 -0.065599 0.050000
-0.784121 -0.080012 0.050000
-0.784991 -0.094225 0.050000
-0.786013 -0.108195 0.050000
-0.787299 -0.121863 0.050000
-0.788995 -0.135204 0.050000
-0.791267 -0.148224 0.050000
-0.794321 -0.160899 0.050000
-0.798245 -0.173576 0.050000
-0.803054 -0.185902 0.050000
-0.808972 -0.198675 0.050000
-0.815596 -0.211764 0.050000
-0.823010 -0.225592 0.050000
-0.830717 -0.240582 0.050000
-0.838215 -0.256767 0.050000
-0.845123 -0.274164 0.050000
-0.851082 -0.292566 0.050000
-0.855895 -0.311852 0.050000
-0.859366 -0.331817 0.050000
-0.861413 -0.352302 0.050000
-0.861881 -0.373164 0.050000
-0.860764 -0.394229 0.050000
-0.857769 -0.415438 0.050000
-0.853009 -0.436544 0.050000
-0.845625 -0.457541 0.050000
-0.836133 -0.478048 0.050000
-0.821778 -0.497537 0.050000
-0.803989 -0.515730 0.050000
-0.776574 -0.525856 0.050000
-0.749133 -0.539349 0.050000
-0.733871 -0.500000 0.050000
-0.717742 -0.500000 0.050000
-0.701613 -0.500000 0.050000
-0.685484 -0.500000 0.050000
-0.669355 -0.500000 0.050000
-0.653226 -0.500000 0.050000
-0.637097 -0.500000 0.050000
-0.620968 -0.500000 0.050000
-0.604839 -0.500000 0.050000
-0.588710 -0.500000 0.050000
-0.572581 -0.500000 0.050000
-0.556452 -0.500000 0.050000
-0.540323 -0.500000 0.050000
-0.524194 -0.500000 0.050000
-0.508065 -0.500000 0.050000
-0.491935 -0.500000 0.050000
-0.475807 -0.500000 0.050000
-0.459677 -0.500000 0.050000
-0.443548 -0.500000 0.050000
-0.427419 -0.500000 0.050000
-0.411290 -0.500000 0.050000
-0.395161 -0.500000 0.050000
-0.379032 -0.500000 0.050000
-0.362903 -0.500000 0.050000
-0.346774 -0.500000 0.050000
-0.330645 -0.500000 0.050000
-0.314516 -0.500000 0.050000
-0.298387 -0.500000 0.050000
-0.282258 -0.500000 0.050000
-0.266129 -0.500000 0.050000
-0.250000 -0.500000 0.050000
-0.233871 -0.500000 0.050000
-0.217742 -0.500000 0.050000
-0.201613 -0.500000 0.050000
-0.185484 -0.500000 0.050000
-0.169355 -0.500000 0.050000
-0.153226 -0.500000 0.050000
-0.137097 -0.500000 0.050000
-0.120968 -0.500000 0.050000
-0.104839 -0.500000 0.050000
-0.088710 -0.500000 0.050000
-0.072581 -0.500000 0.050000
-0.056452 -0.500000 0.050000
-0.040323 -0.500000 0.050000
-0.024194 -0.500000 0.050000
-0.008065 -0.500000 0.050000
0.008065 -0.500000 0.050000
0.024194 -0.500000 0.050000
0.040323 -0.500000 0.050000
0.056452 -0.500000 0.050000
0.072581 -0.500000 0.050000
0.088710 -0.500000 0.050000
0.104839 -0.500000 0.050000
0.120968 -0.500000 0.050000
0.137097 -0.500000 0.050000
0.153226 -0.500000 0.050000
0.169355 -0.500000 0.050000
0.185484 -0.500000 0.050000
0.201613 -0.500000 0.050000
0.217742 -0.500000 0.050000
0.233871 -0.500000 0.050000
0.250000 -0.500000 0.050000
0.266129 -0.500000 0.050000
0.282258 -0.500000 0.050000
0.298387 -0.500000 0.050000
0.314516 -0.500000 0.050000
0.330645 -0.500000 0.050000
0.346774 -0.500000 0.050000
0.362903 -0.500000 0.050000
0.379032 -0.500000 0.050000
0.395161 -0.500000 0.050000
0.411290 -0.500000 0.050000
0.427419 -0.500000 0.050000
0.443548 -0.500000 0.050000
0.459677 -0.500000 0.050000
0.475807 -0.500000 0.050000
0.491935 -0.500000 0.050000
0.508065 -0.500000 0.050000
0.524194 -0.500000 0.050000
0.540323 -0.500000 0.050000
0.556452 -0.500000 0.050000
0.572581 -0.500000 0.050000
0.588710 -0.500000 0.050000
0.604839 -0.500000 0.050000
0.620968 -0.500000 0.050000
0.637097 -0.500000 0.050000
0.653226 -0.500000 0.050000
0.669355 -0.500000 0.050000
0.685484 -0.500000 0.050000
0.701613 -0.500000 0.050000
0.717742 -0.500000 0.050000
0.733871 -0.500000 0.050000
0.770275 -0.515845 0.050000
0.778970 -0.515290 0.050000
0.795931 -0.504585 0.050000
0.810056 -0.490316 0.050000
0.820630 -0.473099 0.050000
0.829078 -0.455155 0.050000
0.835306 -0.436481 0.050000
0.840014 -0.417569 0.050000
0.843176 -0.398481 0.050000
0.845033 -0.379328 0.050000
0.845575 -0.360224 0.050000
0.844869 -0.341222 0.050000
0.842902 -0.322488 0.050000
0.839701 -0.304097 0.050000
0.835283 -0.286284 0.050000
0.829744 -0.269148 0.050000
0.823262 -0.252979 0.050000
0.816185 -0.237695 0.050000
0.809083 -0.223361 0.050000
0.802794 -0.209522 0.050000
0.797405 -0.195497 0.050000
0.793248 -0.181851 0.050000
0.790197 -0.167528 0.050000
0.788048 -0.153194 0.050000
0.786530 -0.138566 0.050000
0.785364 -0.123781 0.050000
0.784343 -0.108837 0.050000
0.783336 -0.093781 0.050000
0.782289 -0.078657 0.050000
0.781176 -0.063476 0.050000
0.779997 -0.048277 0.050000
0.778755 -0.033061 0.050000
0.777454 -0.017854 0.050000
0.776101 -0.002657 0.050000
0.774697 0.012513 0.050000
0.773247 0.027649 0.050000
0.771752 0.042741 0.050000
0.770220 0.057772 0.050000
0.768655 0.072736 0.050000
0.767069 0.087608 0.050000
0.765479 0.102384 0.050000
0.763921 0.117027 0.050000
0.762446 0.131549 0.050000
0.761143 0.145905 0.050000
[...]
CELL_DATA 34596
SCALARS Mises_Stress_Abs(MPa) float 1
LOOKUP_TABLE default
134.745000
140.157000
101.857000
122.290000
130.236000
122.907000
130.851000
128.528000
86.747100
133.368000
34.005800
113.923000
62.591300
15.603000
5.397220
2.920810
2.248990
0.913905
50.279400
0.507094
5.932430
24.512600
74.570900
4.483830
3.513640
3.358040
1.761070
0.849331
73.854300
42.573200
65.822300
21.143500
28.969200
32.949100
51.763800
59.874700
46.881800
31.462100
49.897400
32.827900
52.652700
61.963700
70.039300
77.180500
36.244000
51.723200
3.849060
4.671310
3.209210
3.622060
1.662870
64.184300
73.951800
61.941800
49.472700
39.577800
65.465700
76.232600
66.132400
69.176000
69.164600
64.627100
68.070700
21.524000
61.387300
69.487500
21.645500
54.435000
44.009900
2.582080
4.246130
4.779430
4.660260
3.763290
63.668800
45.279900
75.988000
150.068000
49.412000
47.913100
162.671000
154.392000
48.793500
68.604500
171.353000
52.275300
43.578300
161.826000
164.034000
81.313400
161.268000
158.271000
4.427510
5.820490
4.547310
5.336760
5.095130
33.906600
40.381100
61.198600
54.275100
81.034500
89.049200
40.731800
38.334000
61.285000
35.469600
6.016620
6.707660
5.586860
5.788110
37.966600
29.935800
27.905000
12.675600
16.202000
53.508300
32.936100
44.132200
5.272250
56.517600
51.132400
61.322600
40.382800
57.005600
34.543500
25.354200
7.787770
6.269710
6.202080
7.158460
7.880060
29.584900
37.659900
42.762100
39.245700
26.862200
36.453100
32.287000
32.294600
27.700300
32.376400
7.768520
9.372730
8.602850
7.267390
7.358200
31.191400
32.527000
25.251200
35.676100
32.083300
17.032400
24.807500
33.043600
42.826300
27.924100
8.483320
11.744300
7.574450
9.195080
9.898890
17.118100
25.954200
27.875800
30.244500
21.910100
8.343390
10.570500
12.234700
12.125900
9.359380
11.739300
31.464300
34.877700
30.255900
11.821300
20.852000
23.762100
20.964100
31.953200
15.576200
12.304600
11.515200
11.285700
16.248700
9.077850
22.560000
31.346900
35.521000
29.830200
20.365900
22.047800
17.448700
19.462400
14.687600
23.031300
12.610800
14.047500
14.799500
9.701310
31.435900
15.620800
26.510800
33.316100
29.796000
36.844100
17.796000
15.885800
22.198100
13.207100
16.921800
10.398400
14.818100
15.886100
17.074100
35.079500
21.511800
41.788200
37.739800
48.012800
32.586500
13.981200
15.694200
16.437200
12.529500
13.878400
16.925100
21.092800
18.798200
17.989600
17.068700
44.284400
45.118200
35.824700
41.109600
13.954800
11.431700
54.573700
13.107200
10.819300
13.040300
36.844100
22.647000
16.632400
32.523200
24.507300
70.541300
41.556100
39.533100
67.101100
58.358000
10.474900
10.129600
9.322280
9.612470
11.661100
56.381500
25.017300
25.018000
26.209800
44.130500
71.812800
29.018100
47.910200
88.656600
51.327200
7.641800
9.440500
8.378980
7.650580
9.262760
61.239100
119.521000
35.482500
107.319000
121.673000
29.363500
34.560200
108.029000
109.787000
47.060600
41.343000
51.680500
127.888000
61.592200
122.127000
47.278000
68.532300
7.322690
6.283870
7.491720
7.587010
4.380250
34.418800
70.436400
61.805700
27.908300
38.480000
46.405800
59.209900
68.536900
67.501100
27.231200
52.715200
43.272700
45.024400
60.806300
63.197500
53.850000
59.005100
6.088960
3.237190
4.767060
5.833180
6.086500
33.976200
49.986600
32.529500
40.905700
28.615500
8.610370
49.102600
65.478300
13.642500
40.552800
39.240100
16.668900
67.259300
9.276480
28.388500
53.233900
16.731600
1.440750
3.518690
4.676150
4.763960
4.191930
42.313400
27.451900
37.613800
37.793800
44.451100
42.765300
50.588200
44.926400
44.491900
44.453800
20.207200
44.434900
51.051200
60.875000
57.691400
45.609800
56.086800
1.110500
4.296990
2.159090
2.921230
3.748150
15.050600
93.768000
28.446900
91.321300
70.531600
58.953500
39.997900
81.092800
99.120300
89.691200
99.800300
20.008800
77.498500
38.307900
62.711300
7.001720
90.092700
3.500760
2.542740
1.715910
3.980850
1.116100
0.146716
15.137800
25.537000
8.834420
8.658900
21.734600
15.902500
14.166400
7.978080
12.677700
7.693220
9.615410
6.589330
5.788950
11.081200
10.134100
5.335840
7.933880
4.879430
5.837420
5.562040
21.482900
23.153500
17.378100
20.658600
17.456000
18.325000
15.287700
18.064800
22.021100
12.343800
6.005680
15.086600
23.218200
8.041030
5.000480
6.682940
17.367500
11.676500
21.364300
20.679600
22.013400
10.894700
10.990700
6.718570
10.981300
7.331040
9.215980
7.037040
8.900530
8.219250
11.015400
11.965300
10.680800
2.575380
7.073010
5.530070
4.847890
7.018430
5.986550
5.667210
6.604130
4.916670
5.877300
11.417100
6.448060
7.406480
7.729310
8.566070
7.903920
13.026400
9.623150
9.022650
11.664000
9.351260
11.440600
11.097300
6.683400
3.885880
16.429800
13.009300
13.971000
14.429800
11.304700
14.838400
14.757800
16.014000
7.222690
18.436600
12.679800
15.339400
16.998900
9.029410
16.379700
12.474300
16.051300
13.225100
16.063900
14.233300
15.188400
11.102900
18.214800
15.184200
16.944400
13.733100
16.425300
13.244300
11.371300
4.824450
9.734650
12.569800
30.880700
31.268700
14.653800
18.885200
15.167200
23.528100
19.898400
26.611800
39.718800
37.299800
36.380600
28.194000
32.898000
27.164700
22.211500
23.600200
25.550400
35.515600
12.013000
13.942000
12.457400
16.352100
7.535690
7.516410
16.024000
20.949200
24.033000
27.486300
31.127000
9.488440
10.153600
0.004884
0.002630
21.449600
18.458000
15.600100
18.729600
17.316000
24.665800
7.150120
0.009423
0.017866
7.360130
22.979200
10.428900
0.004756
24.044100
0.008501
2.499710
4.072260
13.383500
8.995700
5.382000
0.015998
3.859080
13.951900
25.132300
10.262800
0.032320
12.398800
24.267000
5.647080
0.005243
9.866350
0.007391
4.069620
8.114850
3.304090
1.742540
24.209800
0.013868
11.963800
14.875900
0.028966
25.988000
11.567300
0.005441
3.840830
8.924120
9.894150
0.006726
2.808540
4.486620
0.013725
1.530680
14.932600
24.881500
0.028055
11.143000
0.005294
0.007038
25.409500
12.398300
10.918000
13.647500
5.857120
16.886800
19.036200
0.005166
0.027491
23.446400
0.013343
11.583100
4.153140
13.251700
11.669400
25.386100
9.159450
0.008775
0.005393
0.003429
23.505300
34.034000
32.041300
0.027105
21.672800
0.013236
11.602300
12.850300
4.460730
12.179200
23.699300
0.013522
0.002826
0.008396
0.012850
25.443400
34.623200
23.488900
0.026936
25.383400
41.721100
7.417020
11.066900
0.013151
9.151340
19.705000
21.913600
11.547500
16.818300
0.013362
0.009575
0.003842
15.276000
0.016608
0.026828
15.766000
30.480100
39.254100
0.004160
0.013119
15.579000
11.862400
7.920730
8.666610
19.183100
11.777200
37.901500
0.007386
0.016597
4.232910
15.116000
60.410200
41.312700
55.526400
0.026401
29.400500
13.787400
16.554900
0.012855
10.264400
5.332930
11.095700
11.825700
10.884000
16.094400
0.007868
38.010300
26.918800
27.126300
15.171000
25.757100
7.361650
13.690100
2.805180
0.026256
0.005054
13.426100
0.012340
5.057440
12.320400
20.649800
27.885200
20.392300
12.450100
20.512000
27.726400
28.066700
21.585900
10.790700
12.408500
4.240230
9.901900
2.542420
8.855320
4.744830
2.439910
10.968400
10.768300
0.006233
0.013298
13.747800
17.801600
27.456500
9.600730
18.968100
14.790200
27.897700
18.673900
19.969900
30.035800
22.131100
29.494800
32.248200
16.654100
3.722150
32.199700
30.153600
19.305500
30.084600
9.235950
30.694800
38.110300
16.115800
10.875600
33.700600
14.210500
29.393900
30.450500
34.160600
47.212400
11.342400
49.095700
21.355200
15.772100
15.026500
19.036000
12.055900
13.545900
3.294160
16.777600
14.273300
16.893500
14.136900
9.387740
10.558200
10.721900
15.581800
17.363300
21.699700
19.574800
16.080900
13.204400
14.536700
7.003350
9.946380
0.026374
4.273170
15.026500
12.500800
9.045640
32.652000
39.099000
43.162900
26.619000
37.755100
23.172800
26.450100
4.510570
17.100100
8.092120
18.098200
20.848900
11.801200
9.657930
13.278100
15.304800
13.852100
4.978930
6.362240
16.683300
6.804120
17.180900
4.170030
10.790200
17.414700
8.525710
12.348200
24.171400
31.037800
7.655250
19.164700
13.469300
15.567100
13.653100
24.593100
30.272700
29.952900
12.858600
9.408950
13.793500
16.575700
21.889300
14.137100
26.129500
19.747600
16.376100
12.868000
19.426800
11.864000
6.197770
14.056600
7.762300
15.321600
14.323900
21.272500
7.389020
11.139900
5.798370
10.446500
15.362600
7.209660
21.834000
8.508620
17.407100
18.344300
3.771140
12.648300
8.681820
5.657340
13.426000
9.622650
5.452160
9.457920
13.287900
13.141300
6.904750
8.397630
17.485600
10.149800
4.347260
7.621230
5.005000
9.235120
6.359640
11.105100
12.839900
8.216230
7.398520
3.850140
12.729600
5.112450
9.363070
12.360900
13.566300
7.306700
5.155890
5.280850
4.244240
9.141870
11.302000
6.513090
6.074360
7.093010
7.458870
9.235690
7.583420
9.779700
5.225740
5.958460
3.115280
4.430940
6.104320
3.096000
2.099680
7.766200
3.421860
3.683870
3.973430
3.187440
1.156610
4.155560
7.657790
5.845950
5.581920
3.948680
2.714550
1.915590
5.630620
9.615900
2.831610
7.549750
7.651310
7.868820
4.550130
1.884140
1.537190
3.008950
4.394760
1.798300
7.893620
11.165300
30.240700
3.600150
5.721120
4.157640
9.055100
11.239900
18.051700
9.261990
21.214200
13.517500
0.012370
9.307710
0.008914
0.013752
28.168800
32.943600
16.124600
18.798900
20.924400
0.010099
0.014064
7.678500
0.012497
12.166800
15.895300
13.004500
28.097600
19.270800
8.829100
0.014696
6.585340
0.012094
0.012821
16.158600
13.936000
12.757300
23.435400
2.465670
3.200340
0.014239
7.580510
5.248270
0.013454
0.015580
19.467500
11.069000
11.407300
13.987400
0.014170
0.016900
5.127840
0.017405
4.582530
15.227800
10.139900
12.029300
9.660440
3.495580
4.299910
0.015340
0.020414
0.018336
12.828900
7.846340
8.857390
9.272500
0.025158
0.016214
0.020545
7.311840
8.462020
8.307330
6.736720
0.029136
0.022049
1.737370
2.829690
0.017709
4.758890
6.396860
5.851280
8.571800
3.798850
6.125880
3.863410
4.618890
2.199250
4.097250
5.096360
9.157560
47.023000
30.810800
24.887800
57.675900
36.924000
14.246800
0.014599
0.008173
25.243000
15.829300
53.774100
27.054300
31.219700
48.311900
0.007935
18.967100
12.792000
0.012927
37.907600
24.768000
26.501500
43.978800
19.576400
10.570800
18.172000
0.008082
0.013715
0.012513
36.077900
25.311400
39.068700
20.952600
14.643800
18.821400
37.363400
37.810100
39.693500
25.071500
39.869300
41.168800
31.449200
33.804500
42.626300
45.342300
53.341000
45.569600
54.087700
50.512700
47.883000
56.904100
50.193700
52.234300
43.240300
47.992600
8.998380
50.992300
53.760600
31.803500
20.500900
12.387200
55.916200
58.962400
42.648100
23.491400
25.057900
19.083700
20.501100
21.484200
22.365900
23.109500
21.931000
21.403700
20.749100
19.505400
23.182700
28.883300
26.068500
31.115300
28.402500
29.292600
24.489100
24.648100
27.353900
25.848100
27.220800
28.589800
33.347100
38.978600
12.906900
33.727200
35.408700
27.337300
36.621800
26.088500
55.101000
20.326800
52.689400
49.404900
55.305800
27.836300
25.445100
4.387340
5.204630
5.606490
4.785400
10.668800
5.992130
7.466200
3.765370
3.212480
16.722300
5.089010
4.003500
4.408360
5.861950
5.431290
3.469470
4.798050
3.061300
6.288200
9.237300
6.241350
11.504100
37.156200
22.796400
29.880500
39.192700
42.146900
44.484300
19.255500
29.175900
14.119000
8.340590
19.531700
21.265000
18.347500
17.019800
18.890300
20.787400
19.464000
20.341300
20.184800
20.448200
21.238400
21.819900
23.752000
20.747800
15.665300
22.591200
22.969000
23.703400
24.551000
8.691510
21.842600
49.791900
45.476300
44.988500
27.051900
41.319200
33.938300
36.578900
27.262200
35.021400
19.206500
13.718200
37.244500
41.182900
39.767300
41.097400
42.730500
38.496100
44.352900
39.248500
42.753300
44.185700
47.178000
47.948900
46.065700
45.381600
46.355400
52.391700
28.021200
50.851700
23.198300
49.965200
43.159200
43.882600
58.144000
45.717500
65.982600
57.961200
61.206000
54.096500
63.338500
64.074600
66.630500
68.687400
60.727700
58.045600
69.813900
71.415100
70.489800
81.946900
83.263600
73.933000
76.079300
71.035100
41.627200
30.727400
68.833400
45.409400
64.240600
30.488800
41.056200
0.006755
20.797700
0.011374
32.126300
73.151900
21.667400
42.490900
67.628000
0.010388
34.459300
0.018187
24.946400
36.358200
26.505100
63.763600
67.165700
43.721800
16.479100
24.363800
0.008660
0.015648
0.011333
0.017011
0.014900
0.013659
0.013490
0.025927
0.017826
0.043557
0.022068
0.637100
1.674310
0.985382
0.037223
1.025380
19.277300
25.206100
16.432200
11.793400
9.774230
5.945220
4.444090
1.984500
1.142770
0.869891
0.782376
0.434685
0.280524
0.126965
0.054218
0.416565
0.332243
0.195829
0.119882
0.072404
0.046059
0.364341
0.295969
0.169605
0.096167
0.075325
0.053377
0.270775
0.227785
0.165766
0.115866
0.083174
0.071595
0.249487
0.212897
0.164302
0.125494
0.100837
0.087731
0.214427
0.198010
0.168054
0.135819
0.112631
0.101517
0.206131
0.191868
0.167625
0.141608
0.121861
0.111271
0.191465
0.184879
0.167235
0.144607
0.126833
0.117454
0.184553
0.178841
0.164103
0.144722
0.128786
0.120074
0.175415
0.172270
0.160037
0.142385
0.127613
0.119531
0.167794
0.164751
0.153779
0.137660
0.123687
0.115917
0.158301
0.155885
0.145782
0.130445
0.116928
0.109342
0.147484
0.144808
0.135201
0.120618
0.107338
0.099781
0.133769
0.131104
0.121955
0.107937
0.094833
0.087243
0.116851
0.114053
0.105525
0.092409
0.079501
0.071863
0.096199
0.093751
0.086288
0.074349
0.061837
0.054123
0.073352
0.071719
0.065650
0.055383
0.043415
0.035444
0.055617
0.055444
0.050223
0.041179
0.030081
0.021930
0.058093
0.059280
0.053067
0.042965
0.033752
0.027801
0.077665
0.079020
0.070681
0.058267
0.049560
0.044665
0.099456
0.100935
0.090682
0.075904
0.066324
0.061493
0.114265
0.117773
0.107170
0.090187
0.080178
0.075222
0.124681
0.128504
0.117376
0.099943
0.089787
0.085048
0.126937
0.131867
0.121494
0.104729
0.095232
0.090894
0.122187
0.128899
0.120509
0.105269
0.096943
0.093231
0.114018
0.121731
0.115548
0.102711
0.095714
0.092772
0.103723
0.112343
0.108432
0.098042
0.092556
0.090331
0.093281
0.102460
0.100546
0.092468
0.088295
0.086752
0.083799
0.093324
0.093029
0.086812
0.083737
0.082724
0.076169
0.085763
0.086558
0.081725
0.079415
0.078795
0.070502
0.080043
0.081525
0.077537
0.075703
0.075317
0.066811
0.076192
0.077979
0.074400
0.072766
0.072491
0.064748
0.073961
0.075794
0.072283
0.070646
0.070384
0.063870
0.072988
0.074748
0.071058
0.069295
0.068983
0.063918
0.072997
0.074568
0.070587
0.068622
0.068234
0.064515
0.073709
0.075109
0.070730
0.068551
0.068071
0.065716
0.075083
0.076249
0.071428
0.069007
0.068433
0.067465
0.077108
0.077991
0.072632
0.069951
0.069268
0.069915
0.079858
0.080347
0.074327
0.071335
0.070519
0.073182
0.083424
0.083335
0.076487
0.073103
0.072118
0.077348
0.087842
0.086945
0.079043
0.075168
0.073957
0.082461
0.093090
0.091083
0.081876
0.077380
0.075882
0.088401
0.098998
0.095543
0.084762
0.079524
0.077665
0.094884
0.105204
0.099950
0.087384
0.081281
0.079005
0.101296
0.111056
0.103728
0.089251
0.082262
0.079506
0.106737
0.115597
0.106060
0.089836
0.081937
0.078724
0.109843
0.117609
0.106049
0.088358
0.079843
0.076152
0.109681
0.115787
0.102486
0.084380
0.075430
0.071349
0.103955
0.108822
0.095001
0.077383
0.068412
0.063978
0.092220
0.096352
0.083230
0.067436
0.058876
0.053932
0.077361
0.080008
0.068089
0.055994
0.047540
0.041552
0.059194
0.061584
0.053145
0.045928
0.037038
0.027993
0.047737
0.049609
0.046345
0.043944
0.032493
0.017330
0.055514
0.055302
0.054575
0.052613
0.037956
0.019191
0.071345
0.069811
0.069094
0.065826
0.048633
0.029617
0.090110
0.087268
0.085235
0.078631
0.058685
0.039468
0.097395
0.094622
0.092436
0.086917
0.065544
0.045641
0.108457
0.104368
0.101371
0.091462
0.066817
0.047078
0.089872
0.086973
0.086146
0.084697
0.061694
0.043037
0.103404
0.094442
0.094271
0.074456
0.046778
0.035351
0.061968
0.068114
0.067115
0.041535
0.041100
0.029605
0.479608
0.462917
0.454490
0.278351
0.107355
0.040351
1.261560
0.942571
0.462068
0.254599
0.113703
0.053577
0.275496
0.235633
0.114324
0.105769
0.061946
0.045977
0.105840
0.096789
0.070967
0.060544
0.053436
0.050221
0.147214
0.122987
0.089729
0.071716
0.063049
0.058370
0.153447
0.140461
0.115775
0.089517
0.073930
0.067210
0.157170
0.148427
0.127450
0.102436
0.084187
0.074913
0.153530
0.150680
0.134264
0.110115
0.091222
0.081259
0.151270
0.149585
0.135843
0.114115
0.095760
0.085527
0.147056
0.135441
0.115199
0.097574
0.087607
0.142811
0.142974
0.132602
0.113971
0.097070
0.087316
0.137686
0.138053
0.128382
0.110651
0.094295
0.084760
0.132315
0.131821
0.122372
0.105478
0.089487
0.080042
0.126022
0.124648
0.115004
0.098570
0.082855
0.073464
0.119705
0.116623
0.106303
0.090378
0.074950
0.065633
0.114242
0.108943
0.097392
0.081770
0.066819
0.057757
0.112441
0.104030
0.090044
0.074492
0.060280
0.051778
0.117668
0.105799
0.087948
0.071304
0.057739
0.050153
0.130640
0.116212
0.093512
0.073675
0.060258
0.053211
0.144986
0.129605
0.102882
0.079543
0.065163
0.058292
0.137688
0.128269
0.105427
0.082219
0.068827
0.062605
0.128902
0.124806
0.105606
0.083025
0.071058
0.065368
0.120286
0.120536
0.104037
0.083373
0.072233
0.067202
0.108891
0.115309
0.102933
0.083310
0.073406
0.068784
0.101015
0.111186
0.101891
0.083661
0.074579
0.070532
0.097701
0.108070
0.100074
0.083854
0.075655
0.072162
0.094050
0.103898
0.097290
0.083130
0.076167
0.073224
0.088875
0.098117
0.093138
0.081442
0.075692
0.073414
0.082062
0.091124
0.088059
0.078804
0.074337
0.072666
0.075048
0.084096
0.082743
0.075704
0.072334
0.071210
0.068639
0.077837
0.077970
0.072589
0.070088
0.069367
0.063874
0.073119
0.074167
0.069888
0.067920
0.067468
0.060879
0.070068
0.071568
0.067806
0.066083
0.065758
0.059437
0.068502
0.070106
0.066398
0.064691
0.064385
0.059159
0.068084
0.069505
0.065610
0.063759
0.063412
0.059316
0.068281
0.069571
0.065302
0.063268
0.062844
0.059958
0.069018
0.070072
0.065419
0.063162
0.062664
0.060792
0.070141
0.071022
0.065894
0.063422
0.062836
0.062134
0.071788
0.072404
0.066730
0.064002
0.063323
0.064022
0.074049
0.074267
0.067901
0.064864
0.064068
0.066596
0.076989
0.076627
0.069366
0.065945
0.064993
0.069883
0.080641
0.079447
0.071055
0.067146
0.065994
0.073805
0.084927
0.082638
0.072843
0.068343
0.066935
0.078188
0.089680
0.086022
0.074571
0.069372
0.067661
0.082732
0.094602
0.089345
0.076028
0.070073
0.068010
0.087149
0.099337
0.092289
0.077037
0.070282
0.067855
0.091236
0.103509
0.094563
0.077414
0.069950
0.067115
0.095375
0.107018
0.095948
0.077255
0.069019
0.065825
0.100233
0.110043
0.096672
0.076459
0.067658
0.064025
0.107547
0.113123
0.096345
0.075338
0.065937
0.061721
0.115702
0.115598
0.095256
0.074160
0.063687
0.058797
0.120515
0.115860
0.093777
0.072293
0.060938
0.054790
0.124381
0.114805
0.090702
0.070448
0.057103
0.049230
0.124363
0.110373
0.085794
0.067941
0.052568
0.041544
0.107826
0.095159
0.077735
0.065291
0.047948
0.032068
0.091553
0.082517
0.073518
0.065946
0.045514
0.022447
0.077585
0.073210
0.072591
0.069349
0.046554
0.016568
0.068151
0.068489
0.074854
0.074309
0.050209
0.019818
0.051969
0.057716
0.072737
0.079024
0.055455
0.029784
0.054571
0.057868
0.076414
0.084845
0.061808
0.041800
0.082826
0.089502
0.097533
0.098775
0.071663
0.050727
0.281321
0.279130
0.275695
0.180967
0.086201
0.050666
0.568221
0.544885
0.532207
0.348986
0.121297
0.044323
1.213570
0.928677
0.499083
0.247928
0.114756
0.061102
0.608398
0.438947
0.200438
0.131865
0.092756
0.058610
0.201518
0.152191
0.126865
0.103351
0.075025
0.065303
0.083696
0.104176
0.103520
0.081057
0.070824
0.065462
0.092055
0.107615
0.101457
0.081641
0.068981
0.063099
0.103972
0.116773
0.108499
0.085695
0.069032
0.060652
0.108672
0.120257
0.112309
0.089628
0.070103
0.059139
0.112053
0.122008
0.114164
0.091675
0.070981
0.058552
0.112693
0.121172
0.113779
0.092322
0.071312
0.058166
0.112988
0.119858
0.112364
0.091642
0.070821
0.057504
0.112817
0.117730
0.109975
0.090069
0.069598
0.056341
0.113119
0.115834
0.107262
0.087887
0.067940
0.054960
0.114929
0.114637
0.104636
0.085756
0.066516
0.054094
0.119498
0.115473
0.103176
0.084518
0.066310
0.054855
0.129131
0.120232
0.104136
0.085348
0.068360
0.058207
0.145615
0.130985
0.109478
0.089358
0.073299
0.064428
0.169106
0.149002
0.119900
0.096464
0.080464
0.072148
0.195607
0.171780
0.134503
0.105423
0.087437
0.079003
0.218677
0.195265
0.151750
0.113113
0.091706
0.082345
0.194779
0.178517
0.141464
0.107200
0.089116
0.080819
0.168763
0.159162
0.127848