# vtk DataFile Version 2.0
test
ASCII
DATASET UNSTRUCTURED_GRID
POINTS 41454 float
0.750000 -0.500000 0.050000
0.750000 0.490000 0.050000
0.756024 -0.485652 0.050000
0.757927 -0.470815 0.050000
0.759490 -0.454655 0.050000
0.760367 -0.438734 0.050000
0.761103 -0.422548 0.050000
0.761614 -0.406409 0.050000
0.762013 -0.390172 0.050000
0.762279 -0.373943 0.050000
0.762441 -0.357661 0.050000
0.762491 -0.341378 0.050000
0.762433 -0.325060 0.050000
0.762260 -0.308749 0.050000
0.761967 -0.292414 0.050000
0.761548 -0.276107 0.050000
0.761002 -0.259808 0.050000
0.760331 -0.243577 0.050000
0.759568 -0.227417 0.050000
0.758740 -0.211361 0.050000
0.757931 -0.195430 0.050000
0.757172 -0.179564 0.050000
0.756531 -0.163806 0.050000
0.756013 -0.148022 0.050000
0.755614 -0.132275 0.050000
0.755319 -0.116459 0.050000
0.755093 -0.100628 0.050000
0.754922 -0.084737 0.050000
0.754777 -0.068822 0.050000
0.754652 -0.052868 0.050000
0.754533 -0.036898 0.050000
0.754419 -0.020907 0.050000
0.754304 -0.004908 0.050000
0.754187 0.011102 0.050000
0.754068 0.027114 0.050000
0.753946 0.043131 0.050000
0.753821 0.059147 0.050000
0.753693 0.075163 0.050000
0.753563 0.091174 0.050000
0.753430 0.107183 0.050000
0.753295 0.123182 0.050000
0.753160 0.139173 0.050000
0.753028 0.155147 0.050000
0.752899 0.171106 0.050000
0.752783 0.187036 0.050000
0.752685 0.202942 0.050000
0.752620 0.218804 0.050000
0.752598 0.234637 0.050000
0.752649 0.250408 0.050000
0.752783 0.266169 0.050000
0.753037 0.281869 0.050000
0.753416 0.297622 0.050000
0.753913 0.313369 0.050000
0.754508 0.329255 0.050000
0.755109 0.345233 0.050000
0.755662 0.361364 0.050000
0.756062 0.377612 0.050000
0.756254 0.393936 0.050000
0.756204 0.410298 0.050000
0.755838 0.426662 0.050000
0.755207 0.442908 0.050000
0.754054 0.459125 0.050000
0.752854 0.474704 0.050000
-0.750000 0.490000 0.050000
0.733871 0.490000 0.050000
0.717742 0.490000 0.050000
0.701613 0.490000 0.050000
0.685484 0.490000 0.050000
0.669355 0.490000 0.050000
0.653226 0.490000 0.050000
0.637097 0.490000 0.050000
0.620968 0.490000 0.050000
0.604839 0.490000 0.050000
0.588710 0.490000 0.050000
0.572581 0.490000 0.050000
0.556452 0.490000 0.050000
0.540323 0.490000 0.050000
0.524194 0.490000 0.050000
0.508065 0.490000 0.050000
0.491935 0.490000 0.050000
0.475807 0.490000 0.050000
0.459677 0.490000 0.050000
0.443548 0.490000 0.050000
0.427419 0.490000 0.050000
0.411290 0.490000 0.050000
0.395161 0.490000 0.050000
0.379032 0.490000 0.050000
0.362903 0.490000 0.050000
0.346774 0.490000 0.050000
0.330645 0.490000 0.050000
0.314516 0.490000 0.050000
0.298387 0.490000 0.050000
0.282258 0.490000 0.050000
0.266129 0.490000 0.050000
0.250000 0.490000 0.050000
0.233871 0.490000 0.050000
0.217742 0.490000 0.050000
0.201613 0.490000 0.050000
0.185484 0.490000 0.050000
0.169355 0.490000 0.050000
0.153226 0.490000 0.050000
0.137097 0.490000 0.050000
0.120968 0.490000 0.050000
0.104839 0.490000 0.050000
0.088710 0.490000 0.050000
0.072581 0.490000 0.050000
0.056452 0.490000 0.050000
0.040323 0.490000 0.050000
0.024194 0.490000 0.050000
0.008065 0.490000 0.050000
-0.008065 0.490000 0.050000
-0.024194 0.490000 0.050000
-0.040323 0.490000 0.050000
-0.056452 0.490000 0.050000
-0.072581 0.490000 0.050000
-0.088710 0.490000 0.050000
-0.104839 0.490000 0.050000
-0.120968 0.490000 0.050000
-0.137097 0.490000 0.050000
-0.153226 0.490000 0.050000
-0.169355 0.490000 0.050000
-0.185484 0.490000 0.050000
-0.201613 0.490000 0.050000
-0.217742 0.490000 0.050000
-0.233871 0.490000 0.050000
-0.250000 0.490000 0.050000
-0.266129 0.490000 0.050000
-0.282258 0.490000 0.050000
-0.298387 0.490000 0.050000
-0.314516 0.490000 0.050000
-0.330645 0.490000 0.050000
-0.346774 0.490000 0.050000
-0.362903 0.490000 0.050000
-0.379032 0.490000 0.050000
-0.395161 0.490000 0.050000
-0.411290 0.490000 0.050000
-0.427419 0.490000 0.050000
-0.443548 0.490000 0.050000
-0.459677 0.490000 0.050000
-0.475807 0.490000 0.050000
-0.491935 0.490000 0.050000
-0.508065 0.490000 0.050000
-0.524194 0.490000 0.050000
-0.540323 0.490000 0.050000
-0.556452 0.490000 0.050000
-0.572581 0.490000 0.050000
-0.588710 0.490000 0.050000
-0.604839 0.490000 0.050000
-0.620968 0.490000 0.050000
-0.637097 0.490000 0.050000
-0.653226 0.490000 0.050000
-0.669355 0.490000 0.050000
-0.685484 0.490000 0.050000
-0.701613 0.490000 0.050000
-0.717742 0.490000 0.050000
-0.733871 0.490000 0.050000
-0.750000 -0.500000 0.050000
-0.752479 0.474568 0.050000
-0.753580 0.458928 0.050000
-0.754649 0.442667 0.050000
-0.755260 0.426412 0.050000
-0.755634 0.410008 0.050000
-0.755725 0.393651 0.050000
-0.755617 0.377292 0.050000
-0.755320 0.361023 0.050000
-0.754911 0.344841 0.050000
-0.754425 0.328759 0.050000
-0.753943 0.312797 0.050000
-0.753493 0.296884 0.050000
-0.753119 0.281061 0.050000
-0.752828 0.265223 0.050000
-0.752616 0.249421 0.050000
-0.752478 0.233576 0.050000
-0.752392 0.217730 0.050000
-0.752352 0.201845 0.050000
-0.752339 0.185949 0.050000
-0.752352 0.170026 0.050000
-0.752378 0.154094 0.050000
-0.752418 0.138145 0.050000
-0.752466 0.122191 0.050000
-0.752522 0.106227 0.050000
-0.752584 0.090264 0.050000
-0.752652 0.074294 0.050000
-0.752725 0.058327 0.050000
-0.752801 0.042356 0.050000
-0.752879 0.026392 0.050000
-0.752957 0.010428 0.050000
-0.753035 -0.005523 0.050000
-0.753114 -0.021463 0.050000
-0.753199 -0.037378 0.050000
-0.753294 -0.053269 0.050000
-0.753413 -0.069118 0.050000
-0.753565 -0.084937 0.050000
-0.753776 -0.100695 0.050000
-0.754059 -0.116430 0.050000
-0.754445 -0.132097 0.050000
-0.754951 -0.147778 0.050000
-0.755592 -0.163418 0.050000
-0.756372 -0.179138 0.050000
-0.757257 -0.194894 0.050000
-0.758224 -0.210778 0.050000
-0.759195 -0.226770 0.050000
-0.760134 -0.242877 0.050000
-0.760980 -0.259095 0.050000
-0.761710 -0.275373 0.050000
-0.762306 -0.291718 0.050000
-0.762760 -0.308077 0.050000
-0.763077 -0.324460 0.050000
-0.763252 -0.340837 0.050000
-0.763297 -0.357208 0.050000
-0.763199 -0.373570 0.050000
-0.762972 -0.389894 0.050000
-0.762579 -0.406222 0.050000
-0.762046 -0.422455 0.050000
-0.761245 -0.438737 0.050000
-0.760271 -0.454738 0.050000
-0.758527 -0.470986 0.050000
-0.756425 -0.485805 0.050000
-0.733871 -0.500000 0.050000
-0.717742 -0.500000 0.050000
-0.701613 -0.500000 0.050000
-0.685484 -0.500000 0.050000
-0.669355 -0.500000 0.050000
-0.653226 -0.500000 0.050000
-0.637097 -0.500000 0.050000
-0.620968 -0.500000 0.050000
-0.604839 -0.500000 0.050000
-0.588710 -0.500000 0.050000
-0.572581 -0.500000 0.050000
-0.556452 -0.500000 0.050000
-0.540323 -0.500000 0.050000
-0.524194 -0.500000 0.050000
-0.508065 -0.500000 0.050000
-0.491935 -0.500000 0.050000
-0.475807 -0.500000 0.050000
-0.459677 -0.500000 0.050000
-0.443548 -0.500000 0.050000
-0.427419 -0.500000 0.050000
-0.411290 -0.500000 0.050000
-0.395161 -0.500000 0.050000
-0.379032 -0.500000 0.050000
-0.362903 -0.500000 0.050000
-0.346774 -0.500000 0.050000
-0.330645 -0.500000 0.050000
-0.314516 -0.500000 0.050000
-0.298387 -0.500000 0.050000
-0.282258 -0.500000 0.050000
-0.266129 -0.500000 0.050000
-0.250000 -0.500000 0.050000
-0.233871 -0.500000 0.050000
-0.217742 -0.500000 0.050000
-0.201613 -0.500000 0.050000
-0.185484 -0.500000 0.050000
-0.169355 -0.500000 0.050000
-0.153226 -0.500000 0.050000
-0.137097 -0.500000 0.050000
-0.120968 -0.500000 0.050000
-0.104839 -0.500000 0.050000
-0.088710 -0.500000 0.050000
-0.072581 -0.500000 0.050000
-0.056452 -0.500000 0.050000
-0.040323 -0.500000 0.050000
-0.024194 -0.500000 0.050000
-0.008065 -0.500000 0.050000
0.008065 -0.500000 0.050000
0.024194 -0.500000 0.050000
0.040323 -0.500000 0.050000
0.056452 -0.500000 0.050000
0.072581 -0.500000 0.050000
0.088710 -0.500000 0.050000
0.104839 -0.500000 0.050000
0.120968 -0.500000 0.050000
0.137097 -0.500000 0.050000
0.153226 -0.500000 0.050000
0.169355 -0.500000 0.050000
0.185484 -0.500000 0.050000
0.201613 -0.500000 0.050000
0.217742 -0.500000 0.050000
0.233871 -0.500000 0.050000
0.250000 -0.500000 0.050000
0.266129 -0.500000 0.050000
0.282258 -0.500000 0.050000
0.298387 -0.500000 0.050000
0.314516 -0.500000 0.050000
0.330645 -0.500000 0.050000
0.346774 -0.500000 0.050000
0.362903 -0.500000 0.050000
0.379032 -0.500000 0.050000
0.395161 -0.500000 0.050000
0.411290 -0.500000 0.050000
0.427419 -0.500000 0.050000
0.443548 -0.500000 0.050000
0.459677 -0.500000 0.050000
0.475807 -0.500000 0.050000
0.491935 -0.500000 0.050000
0.508065 -0.500000 0.050000
0.524194 -0.500000 0.050000
0.540323 -0.500000 0.050000
0.556452 -0.500000 0.050000
0.572581 -0.500000 0.050000
0.588710 -0.500000 0.050000
0.604839 -0.500000 0.050000
0.620968 -0.500000 0.050000
0.637097 -0.500000 0.050000
0.653226 -0.500000 0.050000
0.669355 -0.500000 0.050000
0.685484 -0.500000 0.050000
0.701613 -0.500000 0.050000
0.717742 -0.500000 0.050000
0.733871 -0.500000 0.050000
0.738114 -0.483695 0.050000
0.741536 -0.468892 0.050000
0.743049 -0.453644 0.050000
0.744172 -0.437819 0.050000
0.744920 -0.421948 0.050000
0.745510 -0.405903 0.050000
0.745928 -0.389839 0.050000
0.746231 -0.373697 0.050000
0.746411 -0.357547 0.050000
0.746482 -0.341352 0.050000
0.746438 -0.325156 0.050000
0.746275 -0.308931 0.050000
0.745987 -0.292720 0.050000
0.745561 -0.276493 0.050000
0.744989 -0.260304 0.050000
0.744275 -0.244130 0.050000
0.743428 -0.228029 0.050000
0.742519 -0.212001 0.050000
0.741597 -0.196041 0.050000
0.740774 -0.180184 0.050000
0.740085 -0.164316 0.050000
0.739559 -0.148513 0.050000
0.739184 -0.132646 0.050000
0.738915 -0.116793 0.050000
0.738730 -0.100882 0.050000
0.738587 -0.084961 0.050000
0.738473 -0.069003 0.050000
0.738367 -0.053034 0.050000
0.738266 -0.037045 0.050000
0.738162 -0.021048 0.050000
0.738055 -0.005040 0.050000
0.737944 0.010971 0.050000
0.737828 0.026987 0.050000
0.737707 0.043004 0.050000
0.737582 0.059023 0.050000
0.737453 0.075039 0.050000
0.737318 0.091055 0.050000
0.737180 0.107065 0.050000
0.737038 0.123070 0.050000
0.736892 0.139066 0.050000
0.736745 0.155054 0.050000
0.736599 0.171025 0.050000
0.736458 0.186984 0.050000
0.736333 0.202914 0.050000
[...]
CELL_DATA 34596
SCALARS Mises_Stress_Abs(MPa) float 1
LOOKUP_TABLE default
11.342400
12.105800
8.396300
10.155100
11.149900
10.273400
11.383200
10.926300
7.661050
11.659500
3.027230
10.040800
5.586380
1.373290
0.441069
0.214202
0.180754
0.078654
4.108060
0.045837
0.488325
2.004650
6.133780
0.345755
0.274989
0.277798
0.145012
0.072990
6.106090
3.486400
5.409010
1.725860
2.425850
2.896130
4.357210
5.001750
3.947530
2.683200
4.370380
2.939080
4.585070
5.391030
6.119700
6.749280
3.101180
4.511470
0.285800
0.383469
0.264610
0.277595
0.141442
5.285270
6.139320
5.225780
4.046420
3.236540
5.553980
6.600680
5.634840
6.014520
6.016820
5.367180
5.737180
1.863860
5.248350
5.956810
1.882600
4.737640
3.923680
0.214313
0.382998
0.392777
0.351928
0.291741
5.322760
3.750150
6.352940
12.468700
4.025910
3.926890
13.587000
13.035000
4.240100
5.922340
14.817500
4.607190
3.819860
13.682300
14.019200
7.048350
14.011200
13.542800
0.362608
0.483744
0.368343
0.452408
0.389787
2.840370
3.321230
5.094810
4.413830
6.556630
7.912330
3.615440
3.353000
5.362430
3.082450
0.481077
0.585479
0.439624
0.474215
3.134810
2.473400
2.280470
0.994442
1.289300
4.336960
2.717370
3.678110
0.423934
4.603740
4.017310
5.509770
3.552080
5.055030
3.027660
2.227180
0.635215
0.493280
0.496319
0.601667
0.663936
2.362580
3.025070
3.527560
3.240260
2.042410
3.319840
2.918200
2.851410
2.433420
2.871850
0.621409
0.801858
0.688851
0.592749
0.598951
2.491450
2.692660
1.897240
2.942490
2.618170
1.546040
2.188550
2.918160
3.873950
2.514040
0.677627
0.957937
0.604113
0.766212
0.836773
1.523100
2.358310
2.479440
2.756030
1.951180
0.685401
0.852075
0.982710
1.027080
0.758767
0.973412
2.596510
2.883030
2.517670
1.023880
1.889090
2.107450
1.862630
2.907130
1.418250
1.041180
0.954035
0.904295
1.325880
0.727293
2.045140
2.620970
2.928360
2.465860
1.763260
1.969260
1.565410
1.779150
1.315130
2.104480
1.024600
1.137060
1.248490
0.802878
2.599470
1.258150
2.270030
2.809540
2.644470
3.039920
1.582400
1.446250
2.033750
1.205110
1.515530
0.836036
1.227820
1.285370
1.447190
2.900340
1.756920
3.543860
3.174710
4.168810
2.677020
1.285830
1.441400
1.476030
1.126480
1.256160
1.442100
1.736840
1.518160
1.460310
1.442280
3.750150
3.799950
2.963610
3.385960
1.289350
1.048260
4.701680
1.166430
0.988999
1.180090
3.050790
1.928550
1.422510
2.669400
2.067110
6.026470
3.460690
3.365680
5.629830
4.836590
0.959417
0.913439
0.863842
0.887868
1.055700
4.692450
2.140380
2.138350
2.235690
3.719280
6.115270
2.464910
4.080110
7.399540
4.270710
0.712472
0.867116
0.765866
0.709661
0.821838
5.177050
10.085800
3.021640
9.072540
10.274000
2.497600
2.941320
9.101820
9.273880
3.999160
3.526180
4.406110
10.776300
5.160590
10.259100
4.011430
5.825000
0.682139
0.579695
0.674645
0.697844
0.415357
2.921090
5.931480
5.210710
2.365480
3.258820
3.929530
4.982320
5.775360
5.662850
2.258790
4.471550
3.687160
3.834140
5.166430
5.363310
4.578820
5.006070
0.572737
0.303704
0.450163
0.530568
0.529962
2.859930
4.225840
2.772820
3.445300
2.439730
0.754954
4.145600
5.554440
1.143220
3.455420
3.333850
1.377000
5.694130
0.751502
2.431370
4.512790
1.398760
0.140025
0.327268
0.444486
0.418244
0.397608
3.580130
2.291700
3.164500
3.202660
3.755460
3.619630
4.268710
3.799950
3.744060
3.752820
1.720060
3.759780
4.309390
5.149880
4.880580
3.851710
4.750110
0.101213
0.391770
0.212352
0.274375
0.285893
1.270660
7.933230
2.382030
7.719340
5.950370
4.956480
3.370230
6.843280
8.367170
7.590800
8.440410
1.692940
6.522980
3.214190
5.276260
0.597816
7.600620
0.296950
0.216282
0.134066
0.319989
0.093668
0.005566
1.468240
2.444440
0.704851
0.919305
2.050090
1.425600
1.247350
0.687350
1.184220
0.668093
0.836882
0.498218
0.518907
0.989261
0.763341
0.503624
0.725692
0.522504
0.593123
0.582956
2.050170
2.207710
1.536620
1.959940
1.633480
1.655670
1.433990
1.714380
2.094590
1.157350
0.577768
1.393650
2.027410
0.784080
0.409279
0.529693
1.583150
1.090920
1.884870
1.800210
1.965210
0.876364
0.922352
0.552909
0.884045
0.516632
0.886382
0.668817
0.891743
0.823625
1.102470
1.191820
1.032610
0.295382
0.704177
0.441606
0.417239
0.725406
0.602309
0.572057
0.647845
0.404067
0.573046
0.979933
0.561721
0.642929
0.661176
0.723294
0.651260
1.123920
0.820658
0.779040
1.008860
0.815263
0.982223
0.947213
0.646251
0.310287
1.595110
1.221540
1.350130
1.363180
1.058580
1.392410
1.398550
1.516360
0.657673
1.696760
1.180650
1.448530
1.586220
0.773413
1.497680
1.163730
1.506960
1.150580
1.417060
1.262710
1.320700
0.976807
1.551410
1.318730
1.458720
1.195240
1.420840
1.159400
1.056400
0.421301
0.841634
1.159960
2.883830
2.934980
1.270060
1.756200
1.383120
2.151810
1.799650
2.467900
3.467340
3.250680
3.427650
2.529600
2.907430
2.472830
2.034320
2.182760
2.363860
3.352310
1.096720
1.258780
1.110870
1.503030
0.711854
0.688966
1.451680
1.874400
2.141620
2.442840
2.741720
0.764529
0.891270
0.000471
0.000256
2.110710
1.729950
1.495190
1.634780
1.596960
2.185620
0.628985
0.000813
0.001555
0.710481
2.072870
1.016560
0.000444
2.321930
0.000825
0.337001
0.354291
1.176720
0.722679
0.592706
0.001385
0.354334
1.172090
2.260030
0.965681
0.002812
1.181450
2.339160
0.488872
0.000445
0.798272
0.000696
0.335420
0.811479
0.207217
0.098437
2.213490
0.001218
1.094780
1.297900
0.002534
2.456240
1.125440
0.000447
0.298620
0.739720
0.771292
0.000620
0.305100
0.417024
0.001214
0.100525
1.279560
2.256290
0.002473
1.050800
0.000432
0.000629
2.413380
1.176090
0.916909
1.218230
0.506295
1.456210
1.603190
0.000450
0.002433
2.170690
0.001186
1.062180
0.329236
1.168060
1.132790
2.364500
0.902494
0.000755
0.000450
0.000301
2.128540
2.982980
2.799350
0.002405
1.991720
0.001180
1.086890
1.108800
0.373407
1.156490
2.221220
0.001187
0.000241
0.000726
0.001115
2.484270
3.106690
2.095720
0.002397
2.234710
3.672920
0.633064
1.016730
0.001176
0.816708
1.857140
2.020470
1.106540
1.473320
0.001129
0.000809
0.000335
1.338620
0.001442
0.002391
1.400290
2.672550
3.463620
0.000376
0.001177
1.468380
1.097050
0.696983
0.740650
1.767180
1.127380
3.378540
0.000616
0.001397
0.326977
1.466910
5.383160
3.679630
4.939850
0.002361
2.595780
1.336580
1.435470
0.001156
0.947753
0.464598
0.966870
0.977719
1.015030
1.480680
0.000659
3.383300
2.447710
2.422450
1.299230
2.284910
0.749023
1.222830
0.216525
0.002373
0.000453
1.198110
0.001124
0.452769
1.086060
1.833440
2.494320
1.729370
1.227700
1.742320
2.462240
2.466020
1.931770
0.856197
1.029360
0.436137
0.887475
0.231306
0.768339
0.562549
0.181408
1.020860
0.982912
0.000572
0.001215
1.258580
1.613780
2.447950
0.826166
1.670570
1.438060
2.399270
1.783550
1.763720
2.582310
1.954630
2.614020
2.864160
1.452400
0.324423
2.856360
2.660800
1.763300
2.644500
0.882171
2.715590
3.388140
1.487960
0.994270
3.009900
1.455150
2.619210
2.655530
3.167750
4.177020
1.010120
4.391510
1.906670
1.392710
1.325860
1.680980
1.066250
1.198140
0.270619
1.474420
1.270840
1.477430
1.254540
0.903448
0.969405
0.933052
1.368940
1.482330
1.902220
1.585310
1.270680
1.265480
1.332360
0.665762
0.758137
0.001550
0.392373
1.341300
1.122920
0.797070
3.154500
3.616780
3.906730
2.352380
3.490590
2.132370
2.526370
0.401502
1.501060
0.724498
1.642560
1.914730
0.887696
0.660265
1.157010
1.230800
1.143920
0.537743
0.686102
1.192220
0.482427
1.451900
0.454538
0.886593
1.574290
0.925724
0.836866
1.702670
2.640880
0.825742
1.688400
1.470640
1.145870
0.991969
1.733140
2.653820
2.524760
1.072860
1.019250
1.523610
1.232910
1.498830
1.351470
1.851290
1.306040
1.355100
0.922675
1.438760
1.340490
0.691675
1.567560
0.858090
1.660540
1.459720
1.520800
0.799634
0.769850
0.364037
0.689351
1.064330
0.710073
1.856770
0.623136
1.533710
1.470270
0.401507
1.396220
0.966195
0.649461
1.136650
0.795605
0.497553
0.608257
1.141400
0.906994
0.540749
0.589676
1.463730
0.838890
0.511950
0.848869
0.559228
0.988952
0.529745
0.722464
0.881230
0.556409
0.688043
0.372439
1.083400
0.550795
0.717520
1.045610
1.097300
0.804136
0.394227
0.611745
0.451227
0.616952
0.770041
0.419431
0.427628
0.565315
0.816282
0.636775
0.561912
0.722753
0.552507
0.633775
0.335225
0.486219
0.662972
0.302848
0.194277
0.599766
0.298573
0.276700
0.263547
0.298937
0.126366
0.386843
0.616281
0.362187
0.376706
0.350480
0.266395
0.229481
0.408377
0.720816
0.293481
0.646882
0.747503
0.638588
0.483602
0.159972
0.152817
0.376410
0.520520
0.218160
0.918653
1.259750
2.545150
0.307480
0.311655
0.265223
0.507907
0.656211
1.088840
0.607561
1.333540
1.360440
0.001198
0.918453
0.001107
0.001360
2.139780
2.671760
1.319290
1.444020
1.724520
0.001301
0.001404
0.765713
0.001203
1.224150
1.215160
1.040130
2.279170
1.585170
0.896743
0.001464
0.655806
0.001531
0.001219
1.315730
1.049080
1.028380
1.900770
0.262350
0.313324
0.001805
0.771495
0.530699
0.001234
0.001542
1.576680
0.859215
0.856983
1.149080
0.001254
0.001624
0.527955
0.002089
0.457376
1.249500
0.739865
0.962416
0.768295
0.360334
0.442248
0.001255
0.002431
0.001719
1.041870
0.582932
0.656316
0.770267
0.002745
0.001250
0.001786
0.504478
0.726637
0.644341
0.531483
0.003144
0.001859
0.186556
0.286051
0.001218
0.421942
0.426209
0.434324
0.693592
0.265127
0.440984
0.367146
0.295617
0.158277
0.315864
0.328220
0.703296
3.694240
2.430160
2.079840
4.736850
3.091370
1.401720
0.001362
0.000819
2.496480
1.315040
4.412760
2.137750
2.596910
3.800430
0.000862
1.893200
1.251590
0.001227
2.934960
1.931440
2.203730
3.583760
1.621530
1.045700
1.810370
0.000954
0.001336
0.001203
2.795640
2.092370
3.184170
1.628870
1.195820
1.880460
3.607250
3.683990
3.807970
2.492790
3.785580
3.882320
3.106140
3.312040
3.979190
4.162810
4.636270
4.153560
4.665770
4.457190
4.325190
4.879340
4.462940
4.573840
4.008270
4.302870
0.683351
4.257630
4.535590
2.639520
1.701060
1.037960
4.752550
4.942580
3.536740
2.277720
2.395240
1.851230
1.986110
2.103410
2.166400
2.132000
2.045060
2.012180
1.971080
1.869350
2.123370
2.448500
2.321130
2.623220
2.444800
2.473050
2.204280
2.233310
2.394410
2.288360
2.373990
2.461060
2.769340
3.257760
1.157840
2.846110
2.968070
2.205250
3.053970
2.518440
5.283860
1.968760
5.116890
4.720710
5.239220
2.661850
2.412070
0.309000
0.373486
0.418994
0.336368
0.970776
0.468503
0.677160
0.256044
0.207400
1.596120
0.353721
0.258707
0.292255
0.399286
0.373538
0.219411
0.330105
0.198019
0.421410
0.729799
0.421704
0.996738
3.133390
1.919600
2.514450
3.284720
3.528190
3.677600
1.833090
2.772530
1.287060
0.719004
1.769300
1.894290
1.695650
1.599450
1.727370
1.866230
1.785530
1.856690
1.812070
1.850670
1.872650
1.928100
2.063750
1.846010
1.385950
1.978710
1.980500
2.055880
2.064970
0.729941
1.907860
4.157100
3.785270
3.749580
2.288490
3.501250
3.271140
3.457480
2.664320
3.309560
1.815730
1.311020
3.479540
3.772260
3.683900
3.753160
3.868970
3.604410
3.968860
3.625600
3.859900
3.944180
4.067300
4.191030
4.073400
4.005910
4.046200
4.408120
2.352800
4.358810
1.886850
4.322140
3.621080
3.692170
4.849130
3.815150
5.952310
5.407210
5.639370
5.108260
5.787550
5.830440
5.988500
6.116870
5.619090
5.436000
5.998170
6.280040
6.185450
6.966790
7.001080
6.426000
6.543380
6.164390
3.476320
2.624540
6.111820
3.795860
5.360570
2.610080
4.027080
0.000629
2.004250
0.001045
2.736710
5.921170
1.879770
3.577710
5.599320
0.000955
3.392070
0.001659
2.440210
3.047350
2.274150
5.085940
5.554560
3.559070
1.601910
2.413310
0.000826
0.001429
0.001016
0.001564
0.001374
0.001274
0.002153
0.001852
0.001399
0.003815
0.002705
0.049918
0.170657
0.099924
0.003385
0.103039
1.430570
1.917580
1.222810
0.853485
0.706690
0.426928
0.309806
0.149759
0.081878
0.108004
0.077662
0.020043
0.014439
0.004290
0.003986
0.045675
0.029680
0.013118
0.007416
0.003282
0.002231
0.014350
0.018821
0.009589
0.003880
0.002259
0.001799
0.010497
0.017592
0.012023
0.005903
0.003817
0.002814
0.007943
0.016505
0.013651
0.008482
0.005545
0.004037
0.007611
0.015765
0.014421
0.010043
0.006965
0.005164
0.008033
0.015124
0.014631
0.010978
0.007936
0.006110
0.008354
0.014576
0.014585
0.011447
0.008572
0.006786
0.008815
0.014105
0.014356
0.011619
0.008889
0.007175
0.009073
0.013642
0.013999
0.011531
0.008927
0.007259
0.009241
0.013133
0.013486
0.011209
0.008682
0.007032
0.009133
0.012482
0.012786
0.010635
0.008154
0.006483
0.008777
0.011611
0.011834
0.009797
0.007338
0.005609
0.007970
0.010416
0.010600
0.008693
0.006263
0.004431
0.006861
0.008920
0.009100
0.007409
0.005049
0.003064
0.005666
0.007359
0.007591
0.006216
0.004077
0.002063
0.005570
0.006640
0.006771
0.005735
0.004111
0.002765
0.007724
0.007902
0.007490
0.006549
0.005411
0.004641
0.010811
0.010575
0.009569
0.008340
0.007320
0.006728
0.013965
0.013518
0.012019
0.010367
0.009259
0.008667
0.016439
0.015906
0.014073
0.012126
0.010889
0.010268
0.017612
0.017268
0.015431
0.013322
0.012055
0.011424
0.017883
0.017670
0.015943
0.013919
0.012699
0.012109
0.017152
0.017201
0.015774
0.013952
0.012872
0.012352
0.015883
0.016161
0.015092
0.013559
0.012659
0.012232
0.014388
0.014833
0.014093
0.012883
0.012170
0.011842
0.012788
0.013389
0.012967
0.012044
0.011515
0.011277
0.011340
0.012006
0.011817
0.011159
0.010782
0.010625
0.010021
0.010750
0.010756
0.010299
0.010050
0.009954
0.008961
0.009698
0.009828
0.009527
0.009367
0.009319
0.008124
0.008866
0.009077
0.008872
0.008772
0.008753
0.007542
0.008264
0.008509
0.008352
0.008280
0.008277
0.007170
0.007869
0.008113
0.007965
0.007896
0.007895
0.006959
0.007637
0.007864
0.007694
0.007612
0.007607
0.006867
0.007530
0.007726
0.007522
0.007418
0.007404
0.006840
0.007504
0.007676
0.007430
0.007302
0.007278
0.006873
0.007547
0.007695
0.007407
0.007255
0.007220
0.006957
0.007653
0.007779
0.007445
0.007269
0.007225
0.007106
0.007830
0.007930
0.007545
0.007342
0.007286
0.007345
0.008093
0.008152
0.007704
0.007468
0.007398
0.007675
0.008451
0.008452
0.007920
0.007643
0.007553
0.008133
0.008917
0.008826
0.008189
0.007854
0.007738
0.008697
0.009484
0.009272
0.008493
0.008087
0.007934
0.009404
0.010148
0.009761
0.008815
0.008313
0.008114
0.010175
0.010863
0.010266
0.009110
0.008497
0.008239
0.011019
0.011578
0.010707
0.009330
0.008586
0.008261
0.011745
0.012157
0.011007
0.009395
0.008522
0.008123
0.012231
0.012456
0.011025
0.009226
0.008236
0.007764
0.012266
0.012274
0.010631
0.008748
0.007672
0.007132
0.011484
0.011404
0.009742
0.007914
0.006815
0.006200
0.010080
0.009876
0.008347
0.006827
0.005720
0.004991
0.007910
0.007813
0.006776
0.005759
0.004614
0.003599
0.005753
0.005931
0.005697
0.005299
0.003933
0.002276
0.004962
0.005388
0.005881
0.005816
0.004109
0.001670
0.005581
0.006222
0.007030
0.006947
0.004907
0.002218
0.006720
0.007390
0.008254
0.008075
0.005753
0.002993
0.007041
0.007775
0.008779
0.008795
0.006274
0.003441
0.006544
0.007294
0.008595
0.008917
0.006254
0.003449
0.004936
0.005619
0.007287
0.008487
0.005667
0.003035
0.007070
0.006649
0.006825
0.007957
0.004585
0.002489
0.019786
0.019884
0.018138
0.012197
0.005245
0.001894
0.039750
0.039526
0.042469
0.031488
0.006799
0.003225
0.103388
0.082990
0.023610
0.014082
0.006481
0.003455
0.069536
0.048121
0.022167
0.010232
0.005707
0.002707
0.036289
0.030031
0.017869
0.009317
0.005869
0.004084
0.018379
0.021455
0.015786
0.009536
0.006475
0.005052
0.012326
0.017777
0.014795
0.009832
0.006838
0.005241
0.008152
0.015478
0.014228
0.010000
0.006858
0.004973
0.006543
0.014078
0.013687
0.009999
0.006736
0.004537
0.005762
0.013054
0.013174
0.009874
0.006556
0.004118
0.012279
0.012667
0.009666
0.006353
0.003754
0.005666
0.011654
0.012163
0.009395
0.006122
0.003422
0.005824
0.011116
0.011652
0.009067
0.005860
0.003100
0.006174
0.010654
0.011122
0.008694
0.005584
0.002826
0.006612
0.010259
0.010587
0.008305
0.005355
0.002732
0.007570
0.010068
0.010092
0.007967
0.005276
0.003004
0.008962
0.010203
0.009770
0.007793
0.005462
0.003703
0.010932
0.010904
0.009800
0.007894
0.005980
0.004701
0.013403
0.012207
0.010264
0.008358
0.006756
0.005826
0.015203
0.013625
0.011186
0.009069
0.007667
0.006922
0.016905
0.015033
0.012173
0.009900
0.008557
0.007892
0.017212
0.015825
0.013059
0.010664
0.009326
0.008691
0.016877
0.016123
0.013705
0.011244
0.009946
0.009313
0.016491
0.016153
0.013974
0.011652
0.010378
0.009776
0.015570
0.015750
0.014000
0.011807
0.010642
0.010076
0.014734
0.015118
0.013694
0.011756
0.010711
0.010212
0.013815
0.014276
0.013132
0.011494
0.010599
0.010181
0.012645
0.013220
0.012406
0.011053
0.010331
0.009996
0.011574
0.012126
0.011544
0.010501
0.009936
0.009687
0.010373
0.010988
0.010663
0.009876
0.009466
0.009292
0.009320
0.009936
0.009797
0.009249
0.008962
0.008853
0.008325
0.008991
0.009028
0.008657
0.008471
0.008409
0.007555
0.008236
0.008385
0.008141
0.008020
0.007991
0.007001
0.007692
0.007901
0.007722
0.007634
0.007623
0.006666
0.007348
0.007571
0.007402
0.007322
0.007315
0.006514
0.007172
0.007365
0.007176
0.007082
0.007071
0.006432
0.007086
0.007256
0.007022
0.006909
0.006889
0.006414
0.007068
0.007205
0.006932
0.006794
0.006766
0.006410
0.007088
0.007210
0.006892
0.006733
0.006696
0.006452
0.007159
0.007265
0.006903
0.006721
0.006675
0.006556
0.007296
0.007375
0.006962
0.006754
0.006698
0.006729
0.007507
0.007550
0.007068
0.006829
0.006760
0.007010
0.007811
0.007788
0.007220
0.006938
0.006851
0.007369
0.008203
0.008093
0.007408
0.007072
0.006959
0.007857
0.008693
0.008451
0.007624
0.007215
0.007070
0.008392
0.009251
0.008856
0.007845
0.007350
0.007163
0.009054
0.009877
0.009267
0.008052
0.007452
0.007216
0.009678
0.010499
0.009664
0.008208
0.007499
0.007204
0.010407
0.011111
0.009973
0.008292
0.007464
0.007110
0.011056
0.011604
0.010176
0.008274
0.007337
0.006921
0.011673
0.011969
0.010232
0.008148
0.007120
0.006636
0.012532
0.012248
0.010102
0.007962
0.006818
0.006261
0.012991
0.012240
0.009894
0.007710
0.006473
0.005788
0.013291
0.012018
0.009513
0.007490
0.006078
0.005199
0.012991
0.011375
0.009043
0.007309
0.005677
0.004453
0.011215
0.010053
0.008549
0.007234
0.005314
0.003543
0.009134
0.008581
0.008131
0.007363
0.005108
0.002555
0.005962
0.006933
0.007949
0.007707
0.005204
0.001915
0.003177
0.005978
0.008096
0.008285
0.005677
0.002397
0.004254
0.006728
0.008823
0.009156
0.006458
0.003666
0.009914
0.010297
0.010706
0.010454
0.007457
0.004902
0.019398
0.018669
0.016380
0.013377
0.008456
0.005320
0.033474
0.032613
0.029070
0.020015
0.009163
0.004296
0.039439
0.038772
0.040432
0.033479
0.008304
0.003547
0.091134
0.079427
0.024925
0.014898
0.006949
0.004114
0.060699
0.047594
0.027980
0.013148
0.008185
0.004512
0.044353
0.036358
0.022614
0.013751
0.009013
0.006688
0.027925
0.026892
0.019856
0.013284
0.009726
0.007853
0.018042
0.021168
0.017671
0.012735
0.009637
0.008000
0.013092
0.017727
0.015989
0.011984
0.009050
0.007378
0.009413
0.015303
0.014692
0.011177
0.008197
0.006340
0.007357
0.013636
0.013604
0.010410
0.007286
0.005128
0.005861
0.012379
0.012716
0.009726
0.006453
0.003904
0.005080
0.011466
0.011986
0.009164
0.005790
0.002805
0.004869
0.010824
0.011418
0.008750
0.005380
0.002103
0.005257
0.010470
0.011026
0.008518
0.005305
0.002260
0.006482
0.010491
0.010849
0.008510
0.005608
0.003197
0.008288
0.010988
0.010962
0.008761
0.006259
0.004462
0.011122
0.012187
0.011430
0.009277
0.007156
0.005809
0.014554
0.014055
0.012274
0.010017
0.008137
0.007089
0.017974
0.016309
0.013462
0.010797
0.009062
0.008158
0.021342
0.018554
0.014519
0.011512
0.009737
0.008913
0.022128
0.019561
0.015291
0.011867
0.010095
0.009292
0.021796
0.019529
0.015340
0.011834
0.010126
0.009338
0.020126
0.018581
0.014787
0.011541
0.009914
0.009184
0.017275
0.016975
0.014142
0.011070
0.009659
0.008963
0.015490
0.015636
0.013340
0.010687
0.009408
0.008791
0.013945
0.014424
0.012610
0.010330
0.009216
0.008678
0.012561
0.013254
0.011930
0.009977
0.009039
0.008588
0.011659
0.012236
0.011175
0.009609
0.008826
0.008471
0.010543
0.011161
0.010423
0.009169
0.008563
0.008293
0.009590
0.010130
0.009614
0.008693
0.008239
0.008052
0.008472
0.009076
0.008840
0.008188
0.007880
0.007761
0.007502
0.008139
0.008117
0.007710
0.007511
0.007446
0.006648
0.007364
0.007526
0.007284
0.007164
0.007135
0.006087
0.006839
0.007100
0.006940
0.006860
0.006849
0.005848
0.006584
0.006836
0.006688
0.006609
0.006602
0.005773
0.006489
0.006708
0.006508
0.006415
0.006400
0.005810
0.006491
0.006639
0.006388
0.006265
0.006242
0.005778
0.006482
0.006610
0.006303
0.006159